Generic title
57072
    1C5    HO5'    1   3.202   5.205   3.443  0.7537 -0.6254  0.4783
    1C5     O5'    2   3.267   5.205   3.373  0.0572 -0.5786 -0.1914
    1C5     C5'    3   3.379   5.154   3.440 -0.3516  0.2454 -0.1526
    1C5     H5'    4   3.472   5.167   3.385  0.7785 -0.0547  1.6065
    1C5    H5''    5   3.358   5.047   3.446  0.4765 -0.1257 -2.6812
    1C5     C4'    6   3.394   5.224   3.567  0.2434 -0.2522 -0.1048
    1C5     H4'    7   3.435   5.323   3.547  0.0492  0.2482  1.7728
    1C5     O4'    8   3.272   5.243   3.638  0.2610  0.2440  0.0151
    1C5     C1'    9   3.291   5.205   3.776 -0.1003  0.2546 -0.4039
    1C5     H1'   10   3.250   5.274   3.850  0.2470 -0.2578  0.2725
    1C5      N1   11   3.240   5.062   3.808  0.2907  0.0486 -0.0179
    1C5      C6   12   3.217   4.966   3.708 -0.3460  0.0708  0.1764
    1C5      H6   13   3.242   4.984   3.604  0.3578 -1.6031  0.0295
    1C5      C5   14   3.160   4.849   3.744  0.0777  0.5277 -0.3629
    1C5      H5   15   3.129   4.788   3.660  0.4695  2.5324 -2.0317
    1C5      C4   16   3.133   4.823   3.879 -0.3517 -0.6150 -0.4617
    1C5      N4   17   3.079   4.708   3.909 -0.5431 -0.0189  0.5799
    1C5     H41   18   3.039   4.654   3.834  0.1162 -0.5027  0.5615
    1C5     H42   19   3.064   4.686   4.007 -0.1907 -0.6247  0.5057
    1C5      N3   20   3.167   4.907   3.977 -0.0572  0.2930 -0.7183
    1C5      C2   21   3.212   5.028   3.942 -0.2865  0.5141 -0.0730
    1C5      O2   22   3.230   5.110   4.035 -0.6434 -0.2935 -0.0444
    1C5     C3'   23   3.493   5.159   3.664  0.1946  0.2232  0.0118
    1C5     H3'   24   3.487   5.050   3.662 -0.1426  0.2481 -1.2049
    1C5     C2'   25   3.436   5.207   3.797 -0.4165  0.2354  0.0366
    1C5     H2'   26   3.467   5.145   3.881 -1.5114 -2.6135 -1.5302
    1C5     O2'   27   3.472   5.343   3.821  0.0998 -0.0673  0.2895
    1C5    HO2'   28   3.566   5.362   3.812 -0.5473  3.6597  0.0019
    1C5     O3'   29   3.628   5.200   3.643  0.2247  1.2328  0.4080
    2U        P   30   3.751   5.101   3.656 -0.4556 -0.2451  0.0041
    2U      OP1   31   3.876   5.172   3.606 -0.0813 -0.2542 -0.2710
    2U      OP2   32   3.706   4.969   3.598 -0.2507  0.1259 -0.6762
    2U      O5'   33   3.764   5.070   3.811  0.5691 -0.5199  0.3344
    2U      C5'   34   3.794   5.180   3.895 -0.0024  0.0290  0.1558
    2U      H5'   35   3.738   5.267   3.860 -2.0652 -1.6744 -1.0335
    2U     H5''   36   3.898   5.210   3.893  0.0823 -0.2126  0.6434
    2U      C4'   37   3.764   5.137   4.041 -0.1196  0.4746  0.1041
    2U      H4'   38   3.803   5.209   4.112 -0.8682  0.5354  0.4699
    2U      O4'   39   3.632   5.126   4.073 -0.3137 -0.1881  0.2163
    2U      C1'   40   3.609   5.010   4.149  0.1124  0.0494  0.2932
    2U      H1'   41   3.555   5.033   4.240 -0.4601  1.0867 -0.2958
    2U       N1   42   3.552   4.890   4.087  0.5318 -0.3752  0.5744
    2U       C6   43   3.535   4.877   3.952 -0.7406  0.1063 -0.5090
    2U       H6   44   3.576   4.951   3.884 -0.3735 -1.6364 -2.2893
    2U       C5   45   3.467   4.770   3.898 -0.6367 -0.7105 -0.4789
    2U       H5   46   3.449   4.772   3.792  0.2001  4.2479 -0.7968
    2U       C4   47   3.414   4.664   3.982 -0.1244 -1.0844  0.2096
    2U       O4   48   3.343   4.566   3.950 -0.4314  0.0733  0.1737
    2U       N3   49   3.436   4.689   4.114 -0.2972  0.4914 -0.1180
    2U       H3   50   3.411   4.612   4.174 -0.5419 -0.3386 -1.2519
    2U       C2   51   3.505   4.796   4.174 -0.2713  0.4492 -1.1464
    2U       O2   52   3.530   4.795   4.293 -0.7509 -0.1369  0.3027
    2U      C3'   53   3.829   5.001   4.062  0.2014  0.4217 -1.2961
    2U      H3'   54   3.802   4.920   3.996 -0.5381  0.5001 -1.1017
    2U      C2'   55   3.753   4.973   4.197 -0.1336 -0.2503  0.2747
    2U      H2'   56   3.758   4.867   4.224 -1.1383 -0.2856  0.3487
    2U      O2'   57   3.797   5.055   4.307  0.1788  0.3167 -0.0713
    2U     HO2'   58   3.761   5.032   4.393  2.6750 -0.9560  0.7399
    2U      O3'   59   3.971   5.015   4.088 -0.0973  0.0551  0.4208
    3G        P   60   4.066   4.888   4.066 -0.2669 -0.0949 -0.1507
    3G      OP1   61   4.204   4.949   4.070 -0.0253 -0.3005  0.0805
    3G      OP2   62   4.027   4.805   3.951 -0.2860 -0.1562 -0.2739
    3G      O5'   63   4.033   4.801   4.195  0.1436  0.0593  0.5139
    3G      C5'   64   4.076   4.852   4.326  0.4072  0.5584  0.9883
    3G      H5'   65   4.023   4.943   4.355 -0.5529  0.0384  0.9001
    3G     H5''   66   4.185   4.857   4.327  0.5438 -1.0342 -0.4161
    3G      C4'   67   4.032   4.751   4.430  0.7906  0.3850 -0.2018
    3G      H4'   68   4.069   4.773   4.530 -0.0418  1.4974 -0.1267
    3G      O4'   69   3.885   4.751   4.434 -0.7773  0.3974 -0.3772
    3G      C1'   70   3.834   4.615   4.453  0.1507 -0.2025 -0.4328
    3G      H1'   71   3.767   4.609   4.539 -0.6204  0.5907 -0.9631
    3G       N9   72   3.755   4.567   4.340  0.8236 -0.3836 -0.2208
    3G       C8   73   3.774   4.592   4.202  0.3320  0.2066  0.4533
    3G       H8   74   3.837   4.670   4.163  1.8780 -1.4015 -0.3801
    3G       N7   75   3.689   4.523   4.125 -0.2646  0.1740  0.2706
    3G       C5   76   3.627   4.434   4.214 -0.3373 -0.1244 -0.2237
    3G       C6   77   3.537   4.327   4.186  0.8699  0.1303  0.0691
    3G       O6   78   3.491   4.298   4.075 -0.6820 -0.5382 -0.4457
    3G       N1   79   3.500   4.255   4.302  0.2713 -0.7017  0.8198
    3G       H1   80   3.426   4.187   4.297 -0.6682  0.3699 -0.9227
    3G       C2   81   3.549   4.283   4.422 -0.0226 -0.3146  0.0205
    3G       N2   82   3.523   4.191   4.516  0.1167 -0.6163  0.5580
    3G      H21   83   3.453   4.120   4.498 -1.0954  0.4287  1.0356
    3G      H22   84   3.579   4.194   4.600 -0.3464  0.9178  0.8363
    3G       N3   85   3.638   4.376   4.451 -0.7083  0.1325 -0.7564
    3G       C4   86   3.666   4.463   4.346 -0.3866 -0.2003 -0.2827
    3G      C3'   87   4.067   4.609   4.396  0.1766  0.1947 -0.1131
    3G      H3'   88   4.057   4.598   4.288  1.3090  0.6709 -0.2888
    3G      C2'   89   3.965   4.534   4.478 -0.0763  0.0014  0.9485
    3G      H2'   90   3.952   4.434   4.436 -2.4166  0.1812  1.0779
    3G      O2'   91   3.979   4.531   4.621  0.0430  0.5282 -0.0740
    3G     HO2'   92   3.975   4.438   4.644  1.0560  0.8973  1.7941
    3G      O3'   93   4.201   4.575   4.438  0.1469  0.6193  0.4047
    4G        P   94   4.290   4.469   4.367  0.0930 -0.1780  0.0952
    4G      OP1   95   4.420   4.460   4.434 -0.0875  0.2580  0.4508
    4G      OP2   96   4.275   4.490   4.225 -0.4033 -0.3962 -0.5746
    4G      O5'   97   4.206   4.339   4.398  0.0307  0.5776  0.3966
    4G      C5'   98   4.189   4.291   4.536 -0.2194 -0.2782  0.2458
    4G      H5'   99   4.172   4.376   4.602  3.3120 -0.5827  1.7714
    4G     H5''  100   4.290   4.260   4.562 -0.0816  0.5879  0.7808
    4G      C4'  101   4.094   4.184   4.571  0.2776 -0.0915 -0.1969
    4G      H4'  102   4.100   4.165   4.678 -0.3539  0.3014 -0.0869
    4G      O4'  103   3.962   4.228   4.542 -0.3844 -0.5078 -0.0613
    4G      C1'  104   3.888   4.115   4.496 -0.1970 -0.1265 -0.0884
    4G      H1'  105   3.799   4.104   4.558 -1.3586  0.1119 -1.6480
    4G       N9  106   3.856   4.140   4.356  0.4570 -0.1470 -0.1461
    4G       C8  107   3.917   4.225   4.265 -0.0270  0.3610  0.4518
    4G       H8  108   3.993   4.298   4.288 -0.2006  0.8108 -0.3253
    4G       N7  109   3.871   4.209   4.146 -0.1796  0.1300  0.8769
    4G       C5  110   3.770   4.112   4.158 -0.6171 -0.4522  0.0434
    4G       C6  111   3.676   4.051   4.063  0.0734 -0.9610  0.0559
    4G       O6  112   3.666   4.081   3.945 -0.2718  0.3262 -0.2630
    4G       N1  113   3.598   3.949   4.118  0.3440  0.4105 -0.1764
    4G       H1  114   3.524   3.906   4.065  0.4219  0.3276 -0.2160
    4G       C2  115   3.614   3.909   4.243 -0.9777 -0.2841 -0.3772
    4G       N2  116   3.553   3.801   4.275 -0.1934  0.0175  0.0170
    4G      H21  117   3.486   3.754   4.215 -1.5456  0.0092  1.4787
    4G      H22  118   3.566   3.770   4.370  0.1587  2.5440  0.8575
    4G       N3  119   3.694   3.965   4.338 -0.3241  0.5047  0.1767
    4G       C4  120   3.766   4.067   4.286 -0.2898 -0.4006  0.3955
    4G      C3'  121   4.120   4.065   4.481 -0.7882 -0.2599 -0.2126
    4G      H3'  122   4.124   4.086   4.374 -1.0512  2.7389  0.2863
    4G      C2'  123   3.984   3.995   4.512 -0.3267 -0.5411  0.3035
    4G      H2'  124   3.960   3.923   4.434 -1.1089 -0.7214  0.7060
    4G      O2'  125   3.986   3.945   4.644 -0.3621  1.2396 -0.0549
    4G     HO2'  126   3.897   3.918   4.669 -0.7680  2.3206 -0.2650
    4G      O3'  127   4.229   3.983   4.516  0.1643  0.5313 -0.4031
    5G        P  128   4.295   3.886   4.410  0.5391 -0.0687  0.1403
    5G      OP1  129   4.411   3.826   4.477  0.3440  0.4132 -0.1803
    5G      OP2  130   4.306   3.952   4.279  0.1523 -1.1150 -0.1473
    5G      O5'  131   4.179   3.785   4.390  0.3135  0.0536  0.0594
    5G      C5'  132   4.156   3.689   4.493  0.4886 -0.4459 -0.2411
    5G      H5'  133   4.135   3.728   4.592  1.5662 -0.9133  0.1869
    5G     H5''  134   4.249   3.633   4.506  1.2439  1.1328  1.5502
    5G      C4'  135   4.035   3.611   4.454 -0.4077 -0.4777 -0.0832
    5G      H4'  136   4.009   3.552   4.542 -1.3950  2.3897  1.6893
    5G      O4'  137   3.920   3.683   4.422 -0.3014  0.6544 -0.7856
    5G      C1'  138   3.850   3.616   4.310  0.4536 -1.4515 -0.3210
    5G      H1'  139   3.745   3.610   4.336  0.2916 -1.4764 -0.9877
    5G       N9  140   3.868   3.700   4.188 -0.5879  0.0808  0.3941
    5G       C8  141   3.953   3.802   4.159 -0.1276  0.5435 -0.3611
    5G       H8  142   4.010   3.849   4.238 -0.1849  0.8245 -0.4817
    5G       N7  143   3.938   3.852   4.040 -0.4332  0.2710 -0.0122
    5G       C5  144   3.836   3.779   3.987  0.1428  0.2258 -0.0864
    5G       C6  145   3.766   3.786   3.861 -0.1866 -1.0488 -0.0578
    5G       O6  146   3.793   3.869   3.770 -0.3002 -0.2729  0.5711
    5G       N1  147   3.666   3.703   3.846  0.6177 -0.1955 -0.1715
    5G       H1  148   3.605   3.698   3.766  0.9779  0.0658 -0.4618
    5G       C2  149   3.640   3.606   3.931  0.4303  0.4624  0.0876
    5G       N2  150   3.542   3.524   3.914  0.4106  0.3083  0.2192
    5G      H21  151   3.496   3.522   3.824  2.7897 -3.1284 -1.1614
    5G      H22  152   3.518   3.458   3.987 -2.3369 -0.2423 -1.0485
    5G       N3  153   3.697   3.596   4.052  0.3009  0.5347  0.7148
    5G       C4  154   3.796   3.683   4.070  0.5862  0.0169 -0.2651
    5G      C3'  155   4.060   3.517   4.337 -0.5732  0.4154 -1.1238
    5G      H3'  156   4.107   3.580   4.262 -0.9193  2.2921  0.1708
    5G      C2'  157   3.917   3.480   4.295  0.2423  0.0170 -0.4216
    5G      H2'  158   3.910   3.436   4.196 -0.3789 -4.0226  1.2110
    5G      O2'  159   3.861   3.379   4.384 -0.1664 -0.4221  0.2963
    5G     HO2'  160   3.928   3.311   4.394 -1.6388 -1.8316  1.0701
    5G      O3'  161   4.142   3.415   4.384 -0.5337  0.0412 -0.0899
    6U        P  162   4.225   3.327   4.285  0.3344 -0.7016 -0.0085
    6U      OP1  163   4.366   3.326   4.332 -0.5296  0.3069 -0.1200
    6U      OP2  164   4.196   3.373   4.147 -0.2082 -0.6126 -0.6487
    6U      O5'  165   4.157   3.184   4.311 -0.4061 -0.5999  0.4736
    6U      C5'  166   4.154   3.124   4.439 -0.6058  0.3259 -0.2653
    6U      H5'  167   4.139   3.197   4.519 -1.5058 -2.3533  2.2394
    6U     H5''  168   4.252   3.078   4.453  0.9785  2.9770 -1.8271
    6U      C4'  169   4.040   3.030   4.441  0.2137  0.3261 -0.2145
    6U      H4'  170   4.039   2.975   4.535 -2.7533 -1.3741 -1.1041
    6U      O4'  171   3.901   3.085   4.424  0.2724  0.0289 -0.6692
    6U      C1'  172   3.826   3.003   4.341 -0.0909  0.6264  0.0290
    6U      H1'  173   3.732   2.972   4.385 -0.0874 -1.4734 -1.2801
    6U       N1  174   3.799   3.060   4.201 -0.7231  0.1454 -0.2313
    6U       C6  175   3.874   3.160   4.155 -0.7273 -0.3388  0.4034
    6U       H6  176   3.963   3.193   4.207  1.1020 -2.8271 -0.9090
    6U       C5  177   3.833   3.220   4.042  0.2258 -0.1260 -1.1094
    6U       H5  178   3.885   3.305   4.000 -0.5709  0.6329 -0.5905
    6U       C4  179   3.727   3.169   3.960  0.3604  0.2076  0.1380
    6U       O4  180   3.690   3.207   3.851 -1.1597  0.1333  0.7799
    6U       N3  181   3.686   3.049   4.001 -0.1629 -0.1201  0.0381
    6U       H3  182   3.612   3.014   3.942  0.4960  1.9190 -2.2001
    6U       C2  183   3.710   2.994   4.121  0.6048 -0.4292  0.7571
    6U       O2  184   3.655   2.888   4.156  0.5748  0.0671  0.4775
    6U      C3'  185   4.059   2.926   4.338  0.2657 -0.0782  0.4347
    6U      H3'  186   4.079   2.975   4.243 -0.9492 -1.6062 -0.6702
    6U      C2'  187   3.914   2.876   4.331 -0.3857 -0.2065  0.2342
    6U      H2'  188   3.897   2.821   4.238  1.0655 -3.1191  1.5547
    6U      O2'  189   3.879   2.791   4.439 -0.1422 -0.1673  0.9304
    6U     HO2'  190   3.839   2.714   4.399 -0.6647  0.9803 -0.9048
    6U      O3'  191   4.153   2.822   4.356  0.8234  0.3161 -0.1762
    7C        P  192   4.237   2.764   4.238  0.7052 -0.1360 -0.1198
    7C      OP1  193   4.307   2.649   4.295 -0.0580  0.3926  0.2605
    7C      OP2  194   4.312   2.880   4.180 -0.3968 -0.0626  0.4326
    7C      O5'  195   4.138   2.725   4.117 -0.7008  0.1555  0.3277
    7C      C5'  196   4.047   2.624   4.123 -0.4698 -0.2534 -0.2225
    7C      H5'  197   3.992   2.615   4.217  1.2810 -1.3146  0.7355
    7C     H5''  198   4.110   2.535   4.115 -0.3763 -0.1905 -0.1793
    7C      C4'  199   3.956   2.629   4.006 -0.3388  0.3527  0.2655
    7C      H4'  200   3.878   2.553   4.012 -0.2328  0.2398  0.2244
    7C      O4'  201   3.892   2.749   4.001  0.5811 -0.6401  0.4628
    7C      C1'  202   3.892   2.798   3.867  1.0266  0.3982  0.7903
    7C      H1'  203   3.788   2.824   3.849  1.6181  1.8578 -0.7304
    7C       N1  204   3.976   2.918   3.844  0.5901  0.4760 -0.2164
    7C       C6  205   4.049   2.976   3.942  0.2167  0.2628 -0.7459
    7C       H6  206   4.054   2.921   4.035  1.8711 -0.9317 -1.5030
    7C       C5  207   4.107   3.099   3.921  0.4487  0.0731  0.6091
    7C       H5  208   4.169   3.144   3.996  0.9053  1.1339 -0.3673
    7C       C4  209   4.083   3.158   3.795 -0.6670 -0.2786  0.3176
    7C       N4  210   4.143   3.271   3.773 -0.9290 -0.0368  0.1541
    7C      H41  211   4.221   3.304   3.828 -0.4847  0.7428 -0.9173
    7C      H42  212   4.126   3.299   3.678  0.0372 -1.7478 -0.5819
    7C       N3  213   3.995   3.112   3.712 -0.0484  0.2448 -0.4969
    7C       C2  214   3.933   2.992   3.736  0.1042 -0.5773 -1.0171
    7C       O2  215   3.848   2.949   3.656 -1.0359  0.2306 -0.4683
    7C      C3'  216   4.035   2.619   3.880 -0.4760 -0.4771  0.0231
    7C      H3'  217   4.125   2.681   3.880 -2.1466  2.1263 -1.1154
    7C      C2'  218   3.937   2.680   3.782  0.1087  0.5210  0.4860
    7C      H2'  219   3.974   2.716   3.685 -1.3484 -0.7373 -0.5921
    7C      O2'  220   3.826   2.594   3.757  0.6972  0.1911 -0.0928
    7C     HO2'  221   3.785   2.603   3.670 -1.5414 -2.8204  0.4490
    7C      O3'  222   4.076   2.491   3.855  0.7101 -0.5471  0.4035
    8G        P  223   4.221   2.459   3.799 -0.4604 -0.1934  0.1095
    8G      OP1  224   4.228   2.310   3.773 -0.0726 -0.0756 -0.1717
    8G      OP2  225   4.322   2.511   3.891  0.2390 -0.0909 -0.3062
    8G      O5'  226   4.231   2.536   3.661  0.0556  0.0982  0.4289
    8G      C5'  227   4.148   2.504   3.550  0.4035 -0.6497 -0.3293
    8G      H5'  228   4.048   2.508   3.591 -0.1894  2.0974 -1.8156
    8G     H5''  229   4.178   2.412   3.500  1.9028  0.5568 -1.7957
    8G      C4'  230   4.174   2.623   3.450  0.0883  0.0916  0.0691
    8G      H4'  231   4.113   2.605   3.361  0.8339  0.4120 -0.5146
    8G      O4'  232   4.123   2.745   3.502  0.8039 -0.0387  0.3437
    8G      C1'  233   4.181   2.855   3.442  0.1806  0.5867  0.1569
    8G      H1'  234   4.107   2.900   3.376 -1.7424 -1.0156  1.1211
    8G       N9  235   4.236   2.948   3.538 -0.4874  0.2825 -0.0471
    8G       C8  236   4.277   2.913   3.665 -0.0299 -0.2694 -0.5817
    8G       H8  237   4.238   2.820   3.702 -0.1973  0.1704  0.3801
    8G       N7  238   4.362   3.000   3.723 -0.0827 -0.5817  0.3089
    8G       C5  239   4.371   3.096   3.619 -0.6149 -0.4744  0.2678
    8G       C6  240   4.457   3.210   3.615 -0.0166 -0.8374 -0.0129
    8G       O6  241   4.542   3.248   3.696  0.5305 -0.3396  0.2127
    8G       N1  242   4.439   3.282   3.497 -0.3155 -0.2186  0.4671
    8G       H1  243   4.503   3.358   3.479 -0.3953 -0.1710  0.3795
    8G       C2  244   4.358   3.248   3.394 -0.2982 -0.2723  0.1686
    8G       N2  245   4.367   3.318   3.283 -0.6308 -0.3689 -0.0995
    8G      H21  246   4.405   3.412   3.278 -1.6108  0.0070 -1.5848
    8G      H22  247   4.319   3.293   3.197  0.6653 -0.8569 -0.6992
    8G       N3  248   4.280   3.145   3.394  0.0255 -0.3535  0.1454
    8G       C4  249   4.291   3.071   3.509 -1.0176  0.4242  0.8338
    8G      C3'  250   4.319   2.660   3.416  0.0352 -0.3400  0.0829
    8G      H3'  251   4.379   2.682   3.504 -0.5554 -1.1936  0.7267
    8G      C2'  252   4.287   2.793   3.351  0.1194  0.6463  0.8601
    8G      H2'  253   4.383   2.845   3.344  1.1644 -1.3407 -0.6746
    8G      O2'  254   4.226   2.780   3.225 -0.5428  0.2608 -0.6307
    8G     HO2'  255   4.286   2.808   3.156 -0.6369  1.4341 -0.2518
    8G      O3'  256   4.376   2.554   3.342 -0.4207  0.0090  0.0192
    9C        P  257   4.518   2.487   3.386 -0.1248  0.0466 -0.1090
    9C      OP1  258   4.559   2.377   3.300 -0.1783  0.4682 -0.1029
    9C      OP2  259   4.498   2.475   3.531  0.1078 -0.5086  0.0400
    9C      O5'  260   4.622   2.598   3.363  0.0736 -0.0452 -0.3964
    9C      C5'  261   4.758   2.575   3.403  0.3519  0.1322 -0.3102
    9C      H5'  262   4.789   2.477   3.368  1.2474 -0.2104  1.3273
    9C     H5''  263   4.770   2.587   3.511 -2.3967 -0.8022  0.1763
    9C      C4'  264   4.848   2.674   3.333 -0.0808 -0.1125  0.4934
    9C      H4'  265   4.944   2.678   3.384 -0.0784  1.4101  0.4084
    9C      O4'  266   4.875   2.630   3.198  0.2878  0.3675 -0.1362
    9C      C1'  267   4.859   2.729   3.098  0.8443  0.4427 -0.7170
    9C      H1'  268   4.941   2.730   3.026  0.4012 -0.1833 -1.2349
    9C       N1  269   4.727   2.721   3.023  0.1691 -0.1908  0.0533
    9C       C6  270   4.635   2.625   3.061  0.2524 -0.0947  0.1736
    9C       H6  271   4.664   2.563   3.145  0.9499  1.8006  1.4066
    9C       C5  272   4.524   2.608   2.992 -0.5804 -0.1855  0.1751
    9C       H5  273   4.448   2.534   3.013  0.1333 -1.1180 -0.4664
    9C       C4  274   4.505   2.696   2.882  0.3677  0.5476  0.3561
    9C       N4  275   4.401   2.681   2.806  0.0164 -0.5202  0.8884
    9C      H41  276   4.339   2.604   2.826 -2.0467  1.5965  3.2149
    9C      H42  277   4.401   2.734   2.719 -0.4748 -0.8342  0.6947
    9C       N3  278   4.585   2.794   2.850 -0.3848  0.0766  0.1082
    9C       C2  279   4.696   2.810   2.926 -0.0108  0.2617 -0.6992
    9C       O2  280   4.780   2.901   2.901  0.4751 -0.1404  0.2509
    9C      C3'  281   4.802   2.817   3.319  0.0846  1.1065 -0.2397
    9C      H3'  282   4.694   2.825   3.308 -0.1789  0.0651  1.3639
    9C      C2'  283   4.864   2.859   3.188 -0.4027  0.4500  0.1315
    9C      H2'  284   4.799   2.940   3.155 -1.9873 -0.3213  1.2096
    9C      O2'  285   5.005   2.891   3.201 -0.6781 -0.5607 -0.4477
    9C     HO2'  286   5.017   2.979   3.164 -0.5520  1.3052  3.5006
    9C      O3'  287   4.841   2.903   3.422 -0.0369 -0.0143  0.5762
   10A        P  288   4.757   3.020   3.489 -0.2868 -0.1217  0.1285
   10A      OP1  289   4.842   3.091   3.588  0.3107 -0.0652 -0.1100
   10A      OP2  290   4.633   2.949   3.532  0.3324  0.0101 -0.2502
   10A      O5'  291   4.724   3.123   3.364 -0.1645 -0.0652 -0.6215
   10A      C5'  292   4.831   3.182   3.291 -0.1126  0.4029 -0.2556
   10A      H5'  293   4.898   3.099   3.265  0.5349  0.9066 -0.2297
   10A     H5''  294   4.883   3.259   3.348  2.0762  1.3942 -3.3343
   10A      C4'  295   4.798   3.241   3.155  0.0006  0.3736  0.2951
   10A      H4'  296   4.888   3.296   3.127  0.3637 -0.6862 -0.6963
   10A      O4'  297   4.764   3.146   3.049  0.2962 -0.5795 -0.0098
   10A      C1'  298   4.641   3.187   2.987  0.6265 -0.3960 -0.1628
   10A      H1'  299   4.662   3.182   2.880  0.5354  1.9277 -0.3291
   10A       N9  300   4.528   3.098   3.009  0.2022 -0.0587  0.0318
   10A       C8  301   4.498   3.021   3.118 -0.0214  0.0855  0.1503
   10A       H8  302   4.566   3.016   3.201 -1.1368 -2.3174  1.0309
   10A       N7  303   4.398   2.941   3.093  0.4476 -0.5275  0.0480
   10A       C5  304   4.348   2.978   2.963  0.6355  0.3722 -0.5089
   10A       C6  305   4.245   2.935   2.874  1.0388  0.4893  0.3062
   10A       N6  306   4.156   2.852   2.910 -0.1587  0.4975  0.0647
   10A      H61  307   4.077   2.842   2.848  0.6798  0.3850 -1.0165
   10A      H62  308   4.148   2.813   3.003 -1.1001  0.4831 -0.0071
   10A       N1  309   4.240   2.985   2.757  0.5652  0.0142  0.3911
   10A       C2  310   4.328   3.075   2.720  0.6593 -0.6005  0.3258
   10A       H2  311   4.320   3.109   2.617 -1.9675  0.9960  0.9701
   10A       N3  312   4.413   3.138   2.798 -0.4994  0.0375  0.7461
   10A       C4  313   4.432   3.074   2.916 -0.6642  0.4418  0.6607
   10A      C3'  314   4.680   3.336   3.155  0.3840 -0.9398 -0.1811
   10A      H3'  315   4.610   3.299   3.231 -1.2965 -0.2097 -1.3236
   10A      C2'  316   4.615   3.332   3.019 -0.0865  0.5293  0.3340
   10A      H2'  317   4.507   3.342   3.026 -0.2758  0.6372 -1.8432
   10A      O2'  318   4.674   3.421   2.926  0.2697 -0.0724 -0.1992
   10A     HO2'  319   4.760   3.446   2.960  1.3570 -0.4322 -2.5144
   10A      O3'  320   4.733   3.466   3.186  0.4168 -0.2581  0.1145
   11G        P  321   4.667   3.541   3.297  0.0462  0.0883 -0.1700
   11G      OP1  322   4.727   3.675   3.317  0.3560  0.4054 -0.1177
   11G      OP2  323   4.655   3.462   3.421 -0.0914  0.7419 -0.4867
   11G      O5'  324   4.526   3.565   3.248  0.2046 -0.0472 -0.3868
   11G      C5'  325   4.503   3.643   3.130  0.5552 -0.5172 -0.8443
   11G      H5'  326   4.507   3.584   3.038  3.1816 -0.5595 -0.7909
   11G     H5''  327   4.577   3.723   3.128  0.2064 -0.1803 -0.1862
   11G      C4'  328   4.368   3.707   3.142 -0.1933  0.1962 -0.9643
   11G      H4'  329   4.353   3.744   3.041  2.5352 -0.8479 -1.8366
   11G      O4'  330   4.267   3.620   3.174 -0.0318 -0.0038 -0.7358
   11G      C1'  331   4.215   3.665   3.300 -0.4962 -0.8255  0.1106
   11G      H1'  332   4.138   3.739   3.279 -1.1124 -0.8321  2.1478
   11G       N9  333   4.159   3.558   3.370  0.2172  0.7593 -0.8158
   11G       C8  334   4.189   3.510   3.500  0.4313 -0.0163  0.4457
   11G       H8  335   4.260   3.561   3.563 -1.4826 -0.0816  2.8307
   11G       N7  336   4.128   3.402   3.532 -0.2775  0.0563  0.2088
   11G       C5  337   4.038   3.387   3.424 -0.2995  0.1191  0.1531
   11G       C6  338   3.937   3.290   3.400  0.7246 -0.4426 -0.1663
   11G       O6  339   3.905   3.190   3.459  0.2149 -0.2750 -0.3753
   11G       N1  340   3.873   3.308   3.280 -0.1625 -0.4797 -1.1864
   11G       H1  341   3.803   3.238   3.259  0.5034 -1.7484  0.7076
   11G       C2  342   3.905   3.400   3.181  0.9331  0.2061 -0.1436
   11G       N2  343   3.831   3.389   3.074 -0.2361 -0.0211  0.2602
   11G      H21  344   3.758   3.319   3.065 -2.8510  2.3282  1.5280
   11G      H22  345   3.825   3.465   3.008 -0.2805  1.7881  2.2267
   11G       N3  346   3.994   3.494   3.195 -0.1046 -0.4200 -0.4868
   11G       C4  347   4.062   3.479   3.322 -0.3465  0.5192  0.8070
   11G      C3'  348   4.368   3.818   3.248 -0.5354  0.0212  0.0064
   11G      H3'  349   4.467   3.848   3.279 -0.4492 -1.6989  1.5304
   11G      C2'  350   4.315   3.748   3.375  0.0354  0.4479  0.2651
   11G      H2'  351   4.394   3.692   3.425 -1.2073 -0.8934  0.8223
   11G      O2'  352   4.256   3.842   3.461 -0.5945  0.0769 -0.3845
   11G     HO2'  353   4.240   3.797   3.544  0.5506 -0.4688 -0.4335
   11G      O3'  354   4.293   3.929   3.201  0.8045  0.1251  0.0928
   12U        P  355   4.356   4.025   3.089  0.1262 -0.1467  0.1976
   12U      OP1  356   4.273   4.008   2.970 -0.6094 -0.4778 -0.2344
   12U      OP2  357   4.496   3.981   3.070  0.4064  0.6179  0.0585
   12U      O5'  358   4.342   4.171   3.143 -0.0489  0.3045 -0.1218
   12U      C5'  359   4.390   4.203   3.270 -0.5315  0.5122 -0.0110
   12U      H5'  360   4.472   4.138   3.298 -0.8795 -1.2735 -2.7394
   12U     H5''  361   4.315   4.196   3.349  0.1612 -0.3951  0.5790
   12U      C4'  362   4.452   4.340   3.253  0.3858 -0.9533 -0.0631
   12U      H4'  363   4.483   4.382   3.349 -0.8334 -2.0233  0.8528
   12U      O4'  364   4.570   4.323   3.177  0.9008  0.3099 -0.3732
   12U      C1'  365   4.572   4.422   3.076  0.2562  0.0886  0.3665
   12U      H1'  366   4.615   4.512   3.120  3.8901 -1.4021  0.2986
   12U       N1  367   4.647   4.378   2.954  0.7151  0.3490 -0.1994
   12U       C6  368   4.625   4.249   2.903  0.0876 -0.1884  0.2495
   12U       H6  369   4.563   4.181   2.960 -0.9631 -1.5569 -2.3851
   12U       C5  370   4.687   4.214   2.786  0.4074  0.1477  0.1706
   12U       H5  371   4.671   4.115   2.746  1.1788 -1.9534  4.4264
   12U       C4  372   4.760   4.309   2.708 -0.6182 -0.4569  0.2558
   12U       O4  373   4.812   4.280   2.601 -0.0772  0.3655 -0.3614
   12U       N3  374   4.776   4.433   2.762 -0.6559 -0.6081 -0.6578
   12U       H3  375   4.845   4.492   2.717 -1.1124  2.0736  1.7990
   12U       C2  376   4.722   4.475   2.882  0.2940 -0.2408  0.3804
   12U       O2  377   4.737   4.595   2.921 -0.1021 -0.2578  0.1173
   12U      C3'  378   4.369   4.444   3.184  0.2094  0.3338  0.2933
   12U      H3'  379   4.264   4.415   3.194  0.6178 -1.6736 -0.7427
   12U      C2'  380   4.428   4.432   3.039  0.2789  0.4706  0.2218
   12U      H2'  381   4.391   4.344   2.986  1.3139 -1.0681  1.9473
   12U      O2'  382   4.423   4.546   2.961  0.5751 -0.6876 -0.0788
   12U     HO2'  383   4.377   4.614   3.010  0.8862 -1.0542  0.7520
   12U      O3'  384   4.400   4.576   3.224  0.2998 -0.4565  0.4706
   13A        P  385   4.350   4.627   3.362  0.3440 -0.0894  0.4593
   13A      OP1  386   4.368   4.775   3.366  0.7933  0.5962 -0.6031
   13A      OP2  387   4.396   4.546   3.476  0.4898 -0.0683  0.4180
   13A      O5'  388   4.198   4.598   3.327 -0.4211 -0.4855 -0.2195
   13A      C5'  389   4.105   4.640   3.427  0.0896 -0.4423 -0.2580
   13A      H5'  390   4.102   4.749   3.426 -1.3179 -0.4589 -1.4715
   13A     H5''  391   4.133   4.609   3.527  2.5103  1.0751 -0.3990
   13A      C4'  392   3.961   4.591   3.394 -0.4075 -0.7097  1.1721
   13A      H4'  393   3.898   4.633   3.471 -0.7641  0.7912  0.1122
   13A      O4'  394   3.918   4.642   3.265  0.5504 -0.6114  0.3130
   13A      C1'  395   3.828   4.558   3.211  0.4327 -0.4548 -0.5863
   13A      H1'  396   3.728   4.601   3.216  0.8692  0.5844 -0.6729
   13A       N9  397   3.847   4.544   3.062  0.2782  0.3280  0.0682
   13A       C8  398   3.816   4.630   2.961  0.3604 -0.2651 -0.6837
   13A       H8  399   3.757   4.719   2.980 -1.8596 -2.1838  2.2849
   13A       N7  400   3.864   4.601   2.847 -0.4299 -0.2901  0.0356
   13A       C5  401   3.936   4.476   2.868  0.0968 -0.3717  0.1040
   13A       C6  402   4.005   4.393   2.785 -0.0894  0.4051  0.1665
   13A       N6  403   4.024   4.412   2.655 -0.8048  0.1680 -0.0133
   13A      H61  404   4.065   4.346   2.590 -1.0400  1.3350 -1.3913
   13A      H62  405   3.977   4.495   2.623 -0.6559  0.6151  0.8754
   13A       N1  406   4.066   4.289   2.835 -0.0339  0.1905  0.1277
   13A       C2  407   4.060   4.269   2.970  0.2455  0.0156 -0.1776
   13A       H2  408   4.110   4.182   3.010  0.4556  0.7726  1.2768
   13A       N3  409   3.992   4.343   3.059 -0.7992 -0.5547 -0.5552
   13A       C4  410   3.924   4.445   3.003 -0.8913 -0.4023  0.0227
   13A      C3'  411   3.944   4.436   3.376 -0.2503 -0.6871  0.4840
   13A      H3'  412   4.023   4.407   3.307  0.4488  2.5906 -0.2594
   13A      C2'  413   3.814   4.439   3.302 -0.1990 -0.6494  0.4891
   13A      H2'  414   3.801   4.345   3.248 -1.3633 -1.1175  1.5606
   13A      O2'  415   3.706   4.466   3.385  0.0046  0.1271 -0.2590
   13A     HO2'  416   3.633   4.430   3.333 -0.8147  0.9165  0.3124
   13A      O3'  417   3.930   4.369   3.499  0.5050  0.6271 -0.1203
   14A        P  418   4.011   4.239   3.541  0.0121 -0.0837  0.2731
   14A      OP1  419   3.961   4.197   3.672 -0.4160  0.4019  0.0115
   14A      OP2  420   4.157   4.265   3.527 -0.2329 -0.2079 -0.3272
   14A      O5'  421   3.960   4.124   3.447 -0.8669 -0.3065  0.7819
   14A      C5'  422   4.015   4.108   3.318  0.2160  0.4285 -0.4495
   14A      H5'  423   4.108   4.053   3.326  0.9270  1.5488 -0.8965
   14A     H5''  424   4.026   4.208   3.276  5.6356  0.7599  1.0260
   14A      C4'  425   3.926   4.020   3.230 -0.7084 -0.3422 -0.8509
   14A      H4'  426   3.935   4.055   3.127 -0.9864  0.0781 -0.7369
   14A      O4'  427   3.969   3.883   3.239 -0.0833 -0.0563 -0.1061
   14A      C1'  428   3.862   3.791   3.249 -0.0561 -0.1966  0.0574
   14A      H1'  429   3.870   3.714   3.172 -0.8132 -0.1184 -0.1064
   14A       N9  430   3.857   3.741   3.385  0.3181 -0.7180 -0.2472
   14A       C8  431   3.936   3.768   3.490  0.2810  0.0868  0.0746
   14A       H8  432   4.011   3.845   3.489  0.4287 -0.0554  0.2448
   14A       N7  433   3.921   3.688   3.593 -0.3739 -0.0978 -0.3136
   14A       C5  434   3.821   3.605   3.551  0.0249 -0.4503 -0.2544
   14A       C6  435   3.751   3.497   3.601 -0.3919  0.1188 -0.2470
   14A       N6  436   3.779   3.442   3.719  0.3081  0.1382  0.3916
   14A      H61  437   3.731   3.356   3.738  1.2455 -0.2792  0.9707
   14A      H62  438   3.861   3.465   3.775  0.5296 -0.9334  0.5210
   14A       N1  439   3.668   3.426   3.527 -0.2423 -0.1078 -0.2048
   14A       C2  440   3.647   3.464   3.408 -0.7556  0.1619  0.2050
   14A       H2  441   3.575   3.407   3.351  0.3531  0.2051 -1.3136
   14A       N3  442   3.693   3.569   3.346 -0.4875  0.0708  0.7173
   14A       C4  443   3.782   3.637   3.423  0.9019 -0.7543  0.4605
   14A      C3'  444   3.780   4.021   3.270  0.5167  0.4908 -0.7692
   14A      H3'  445   3.768   4.023   3.378 -1.0826  1.6717 -0.9367
   14A      C2'  446   3.733   3.880   3.226  0.5478  0.3791 -0.2522
   14A      H2'  447   3.650   3.835   3.280  0.6454  0.3266 -0.1440
   14A      O2'  448   3.703   3.882   3.089  0.0854  0.2671  0.2473
   14A     HO2'  449   3.648   3.957   3.066  1.9589  1.4772 -0.6017
   14A      O3'  450   3.700   4.125   3.221  0.3613  0.4499 -0.5467
   15C        P  451   3.560   4.165   3.284  0.1620  0.0852 -0.1746
   15C      OP1  452   3.545   4.307   3.252  0.2261 -0.2760 -0.6935
   15C      OP2  453   3.552   4.117   3.425  0.5769  0.0736 -0.2483
   15C      O5'  454   3.465   4.078   3.196  0.3298  0.1740 -0.0569
   15C      C5'  455   3.339   4.126   3.153 -0.1630 -0.5316 -0.2965
   15C      H5'  456   3.341   4.233   3.132  2.0383 -0.2078  1.2421
   15C     H5''  457   3.276   4.130   3.242  0.5341 -0.5070  0.2029
   15C      C4'  458   3.281   4.047   3.040  0.1439  0.2736  0.5147
   15C      H4'  459   3.182   4.088   3.018  1.0968  2.8502  0.7025
   15C      O4'  460   3.358   4.049   2.918 -0.3758 -0.5170 -0.2335
   15C      C1'  461   3.342   3.923   2.857  0.7768  0.2017 -0.3052
   15C      H1'  462   3.240   3.914   2.819  0.1539  2.0047  0.7632
   15C       N1  463   3.448   3.906   2.755  0.6820  0.2530 -0.5374
   15C       C6  464   3.559   3.833   2.773 -0.4095 -0.2959  0.0931
   15C       H6  465   3.573   3.771   2.860 -0.7152 -0.4284  0.0505
   15C       C5  466   3.657   3.826   2.677 -0.1087  0.0625  0.5515
   15C       H5  467   3.745   3.764   2.680 -1.3318 -1.8260 -0.4978
   15C       C4  468   3.629   3.894   2.552  0.9812  0.1327 -0.5826
   15C       N4  469   3.715   3.887   2.456 -0.0644 -0.0262  0.2901
   15C      H41  470   3.795   3.826   2.463  0.4453  0.4008 -1.3059
   15C      H42  471   3.697   3.934   2.369 -0.0335 -1.6518 -0.6238
   15C       N3  472   3.521   3.968   2.533 -0.4443 -0.2379  0.9643
   15C       C2  473   3.433   3.981   2.633  0.5871 -0.1742 -0.5302
   15C       O2  474   3.337   4.054   2.611  0.0608 -0.1746 -0.2292
   15C      C3'  475   3.267   3.901   3.081  0.1743 -0.3070  0.6545
   15C      H3'  476   3.291   3.895   3.187  1.7429  0.2815  0.3623
   15C      C2'  477   3.364   3.835   2.978  0.1945 -0.4612  0.1134
   15C      H2'  478   3.464   3.856   3.017  0.6592 -0.7909 -0.8794
   15C      O2'  479   3.330   3.699   2.958 -0.0598  0.3156  0.3139
   15C     HO2'  480   3.390   3.645   3.010  0.9202  0.5165 -0.5703
   15C      O3'  481   3.142   3.869   3.052 -0.0461 -0.1287  0.5363
   16C        P  482   3.031   3.883   3.165 -0.1076  0.3246  0.4072
   16C      OP1  483   2.898   3.866   3.101 -0.7856 -0.1400  0.8057
   16C      OP2  484   3.066   4.009   3.239 -0.1338  0.0773 -0.2167
   16C      O5'  485   3.053   3.759   3.249  0.0340 -0.0086 -0.0113
   16C      C5'  486   3.043   3.629   3.200 -0.2960  1.0850  0.6965
   16C      H5'  487   3.113   3.622   3.117 -0.1079  1.4642  0.8195
   16C     H5''  488   2.944   3.615   3.156  0.5601  0.5437 -1.1839
   16C      C4'  489   3.068   3.519   3.307 -0.3398  0.2404 -0.1966
   16C      H4'  490   3.012   3.430   3.277 -0.7493  0.6148 -0.5474
   16C      O4'  491   3.202   3.490   3.315  0.1052  0.2018 -0.6999
   16C      C1'  492   3.244   3.489   3.453 -0.4311  0.0192  0.6507
   16C      H1'  493   3.300   3.399   3.477  0.1100  0.0013 -0.6019
   16C       N1  494   3.328   3.607   3.485  0.1295  0.6173 -0.8069
   16C       C6  495   3.352   3.707   3.394 -0.6633 -0.1175 -0.2614
   16C       H6  496   3.292   3.709   3.304  1.7109 -1.4690 -1.9745
   16C       C5  497   3.443   3.805   3.425  0.8477 -0.2826  0.8542
   16C       H5  498   3.453   3.888   3.357 -1.4093 -0.8527 -0.2473
   16C       C4  499   3.517   3.796   3.540 -0.3989  0.4422  0.2859
   16C       N4  500   3.593   3.895   3.573  0.4255 -0.2399 -0.1954
   16C      H41  501   3.597   3.979   3.518  0.9633  0.0109  0.2192
   16C      H42  502   3.653   3.883   3.654  1.2461  0.6333 -0.6511
   16C       N3  503   3.489   3.705   3.637 -0.3471  0.0979  0.4352
   16C       C2  504   3.400   3.612   3.611  0.5283 -0.2363 -0.2724
   16C       O2  505   3.382   3.527   3.689  0.5827 -0.0108 -0.7045
   16C      C3'  506   3.025   3.567   3.446  0.1131 -0.6457  0.1464
   16C      H3'  507   3.045   3.673   3.453 -2.2078  0.0890 -2.6025
   16C      C2'  508   3.116   3.493   3.536  0.7145  0.4787 -0.2465
   16C      H2'  509   3.133   3.552   3.627  0.5392  1.8430 -1.0809
   16C      O2'  510   3.072   3.353   3.550  0.1124 -0.5737 -0.4452
   16C     HO2'  511   3.140   3.301   3.593 -0.3760  0.1908  1.3422
   16C      O3'  512   2.889   3.554   3.465 -0.2943 -0.5840  0.2269
   17C        P  513   2.809   3.621   3.583 -0.0419 -0.1107 -0.2679
   17C      OP1  514   2.680   3.552   3.589 -0.1078  0.2275 -0.3530
   17C      OP2  515   2.825   3.770   3.564 -0.2281 -0.0779  0.2585
   17C      O5'  516   2.881   3.590   3.721 -0.1894 -0.0862  0.2696
   17C      C5'  517   2.880   3.461   3.775 -0.6649  0.0947  0.4178
   17C      H5'  518   2.904   3.384   3.702  2.2239 -0.2911  1.6217
   17C     H5''  519   2.780   3.448   3.816 -1.2303  1.9584 -0.2165
   17C      C4'  520   2.978   3.454   3.890  0.4623 -0.7315 -0.7901
   17C      H4'  521   2.980   3.356   3.938  1.2448  0.1655  1.1333
   17C      O4'  522   3.116   3.481   3.856  0.2085 -0.1752  0.3832
   17C      C1'  523   3.175   3.540   3.968 -0.5844 -0.2749  0.4009
   17C      H1'  524   3.262   3.482   4.000 -0.8382  0.1679  1.9414
   17C       N1  525   3.221   3.677   3.939  0.2902  0.3239  0.3991
   17C       C6  526   3.172   3.742   3.828  0.0810 -0.8509 -0.1609
   17C       H6  527   3.093   3.701   3.767 -2.3627 -1.2546  3.0414
   17C       C5  528   3.226   3.861   3.790  0.0839  0.2736 -0.2374
   17C       H5  529   3.205   3.902   3.692  1.6152  1.2621 -0.1867
   17C       C4  530   3.347   3.898   3.858 -0.1435 -0.9447  0.1747
   17C       N4  531   3.429   3.983   3.818 -1.0813 -0.1001  0.0847
   17C      H41  532   3.423   4.043   3.737  0.9456 -0.0277 -0.0823
   17C      H42  533   3.510   3.993   3.878  0.2851 -1.2574 -1.4989
   17C       N3  534   3.390   3.838   3.967  0.1191 -0.5238 -0.2546
   17C       C2  535   3.328   3.729   4.012  0.1781  0.2327  0.6437
   17C       O2  536   3.367   3.683   4.116 -0.6472  0.8038  0.1028
   17C      C3'  537   2.945   3.558   4.000  0.4648  0.1849 -0.1043
   17C      H3'  538   2.944   3.659   3.961  2.7808  0.0537 -0.6600
   17C      C2'  539   3.074   3.544   4.081 -0.3566 -1.1344  0.1602
   17C      H2'  540   3.093   3.623   4.154  0.2150 -0.6687 -0.4781
   17C      O2'  541   3.078   3.418   4.150  0.0981 -0.0501 -0.4005
   17C     HO2'  542   3.122   3.442   4.232 -1.5316  1.9937 -0.0171
   17C      O3'  543   2.832   3.529   4.069  0.5794  0.1799  0.5951
   18C        P  544   2.746   3.633   4.145  0.1628 -0.1967 -0.1641
   18C      OP1  545   2.626   3.563   4.205 -0.1290 -0.3506 -0.2273
   18C      OP2  546   2.724   3.738   4.050 -0.2302 -0.1297  0.4787
   18C      O5'  547   2.838   3.679   4.260  0.5352  0.4296 -0.1126
   18C      C5'  548   2.861   3.587   4.365  0.2807 -0.7335  0.7438
   18C      H5'  549   2.894   3.488   4.335  0.0181 -0.9566  1.1929
   18C     H5''  550   2.770   3.571   4.423 -1.2423 -0.7424 -1.5125
   18C      C4'  551   2.965   3.657   4.442  0.3772 -0.1540 -0.0869
   18C      H4'  552   2.982   3.606   4.536 -1.6169  0.9077  0.9292
   18C      O4'  553   3.089   3.655   4.382  0.2333 -0.4214 -0.3531
   18C      C1'  554   3.161   3.769   4.427  0.1100 -0.0295 -0.1008
   18C      H1'  555   3.259   3.739   4.465  0.2788  0.8404  0.1755
   18C       N1  556   3.183   3.868   4.321 -0.2728 -0.0190  1.1973
   18C       C6  557   3.103   3.882   4.212 -0.0021  0.2418  0.0345
   18C       H6  558   3.019   3.814   4.199 -1.2317  1.5992  0.7086
   18C       C5  559   3.129   3.969   4.113  0.5289 -0.4105 -0.2823
   18C       H5  560   3.063   3.965   4.027 -0.5346 -1.4139  0.5562
   18C       C4  561   3.245   4.050   4.122 -0.4311 -0.1453 -0.3245
   18C       N4  562   3.253   4.146   4.041  0.0575 -0.4288  0.6087
   18C      H41  563   3.191   4.148   3.960 -1.0583 -0.2239  1.4464
   18C      H42  564   3.332   4.206   4.055 -0.1130  0.2883 -1.1641
   18C       N3  565   3.308   4.054   4.237 -0.4027  0.1872 -0.1105
   18C       C2  566   3.279   3.968   4.338 -0.2336  0.5753  0.7676
   18C       O2  567   3.327   3.989   4.446  0.3411 -0.3720 -0.2937
   18C      C3'  568   2.934   3.796   4.489  0.0172 -0.1729  0.1153
   18C      H3'  569   2.915   3.858   4.401  1.0201 -2.4481 -1.8154
   18C      C2'  570   3.076   3.827   4.538 -0.4380  0.2935  0.5158
   18C      H2'  571   3.101   3.933   4.542  0.9328  0.0429 -0.7345
   18C      O2'  572   3.124   3.757   4.649  0.0471 -0.7662 -0.1085
   18C     HO2'  573   3.149   3.820   4.717  2.0227  0.9621 -2.2661
   18C      O3'  574   2.820   3.807   4.579 -0.3839  0.1528  0.1070
   19A        P  575   2.755   3.954   4.593  0.2446 -0.3074  0.0785
   19A      OP1  576   2.644   3.949   4.695 -0.1799 -0.4606  0.6136
   19A      OP2  577   2.720   4.002   4.458  0.2015 -0.0516 -0.1533
   19A      O5'  578   2.859   4.052   4.659 -0.3197 -0.4265  0.2567
   19A      C5'  579   2.905   4.051   4.791 -0.0258  0.3927 -0.3433
   19A      H5'  580   2.909   3.947   4.825 -0.2886 -0.0815 -1.7200
   19A     H5''  581   2.831   4.103   4.852  1.8067  0.5648  1.8471
   19A      C4'  582   3.044   4.118   4.810  0.6193  0.4043  0.2111
   19A      H4'  583   3.079   4.085   4.908 -1.7566 -1.8170  0.4324
   19A      O4'  584   3.133   4.085   4.709  0.2218 -0.1549 -0.3646
   19A      C1'  585   3.201   4.206   4.674  0.1142  0.1326  0.4225
   19A      H1'  586   3.309   4.190   4.672  0.2060  0.7346  0.4324
   19A       N9  587   3.154   4.253   4.538  0.1184 -0.1004  0.6009
   19A       C8  588   3.060   4.188   4.463  0.0160  0.1143 -0.5003
   19A       H8  589   3.010   4.103   4.506  0.5452 -0.7723 -1.5746
   19A       N7  590   3.037   4.244   4.348 -0.0511 -0.4890  0.4118
   19A       C5  591   3.138   4.347   4.340 -0.2050  0.2107 -0.2081
   19A       C6  592   3.192   4.424   4.239 -0.1155 -0.8519  0.1004
   19A       N6  593   3.167   4.428   4.111 -0.2952  0.3195  0.2474
   19A      H61  594   3.210   4.495   4.049  0.2001 -1.6272 -1.6215
   19A      H62  595   3.108   4.358   4.070 -0.6311  0.7865 -0.0749
   19A       N1  596   3.294   4.507   4.272 -0.1299 -0.8133 -0.5698
   19A       C2  597   3.340   4.509   4.395 -0.4876  0.3407  0.9707
   19A       H2  598   3.422   4.579   4.406 -2.1627  2.4964  0.4677
   19A       N3  599   3.305   4.430   4.496  0.0910  0.4098  0.8006
   19A       C4  600   3.201   4.353   4.460 -0.2416 -0.5795 -0.6331
   19A      C3'  601   3.035   4.267   4.807  0.5852  0.1948 -0.3929
   19A      H3'  602   2.972   4.294   4.723  0.7030  1.9607  0.0567
   19A      C2'  603   3.175   4.306   4.779 -0.0464 -0.9791  0.5897
   19A      H2'  604   3.171   4.404   4.732  0.2587 -1.8042 -1.2927
   19A      O2'  605   3.263   4.295   4.891  0.0097 -0.2711  0.2544
   19A     HO2'  606   3.351   4.311   4.856 -0.8710  1.4357 -1.3418
   19A      O3'  607   2.985   4.316   4.931 -0.5840 -0.0540  0.1270
   20G        P  608   2.897   4.454   4.942  0.3485 -0.1157  0.2130
   20G      OP1  609   2.848   4.467   5.082 -0.4966  0.1060  0.1922
   20G      OP2  610   2.800   4.468   4.829 -0.1289 -0.4205  0.2841
   20G      O5'  611   3.013   4.560   4.924 -0.2317 -0.1160 -0.2364
   20G      C5'  612   3.120   4.584   5.019  0.1585  0.2809 -0.3091
   20G      H5'  613   3.179   4.493   5.029 -1.4434 -0.8282 -0.5519
   20G     H5''  614   3.087   4.622   5.116  0.0028  0.8401 -0.5765
   20G      C4'  615   3.216   4.681   4.950  0.5778 -1.3672 -0.2748
   20G      H4'  616   3.310   4.690   5.003  0.4233  0.7334 -0.2599
   20G      O4'  617   3.235   4.640   4.811  0.1329 -0.0097  0.0489
   20G      C1'  618   3.192   4.745   4.727 -0.0799 -0.7688  0.0681
   20G      H1'  619   3.269   4.810   4.685 -1.3017  1.2601  0.8258
   20G       N9  620   3.117   4.700   4.612 -0.0833 -0.4673  0.2302
   20G       C8  621   3.022   4.599   4.596 -0.1353 -0.0890  0.2323
   20G       H8  622   2.995   4.539   4.681  0.0932  0.8603  0.9844
   20G       N7  623   2.968   4.590   4.476  0.7290 -0.4862 -0.1282
   20G       C5  624   3.035   4.697   4.407  0.3319  0.5434  0.2139
   20G       C6  625   3.036   4.746   4.271 -0.1976  0.4167 -0.1716
   20G       O6  626   2.974   4.706   4.172 -0.7451 -0.0854  0.4141
   20G       N1  627   3.115   4.849   4.242  1.1977  0.3574 -0.1964
   20G       H1  628   3.110   4.895   4.152  1.8868 -2.4365 -1.7948
   20G       C2  629   3.210   4.896   4.325  0.0549 -0.3912  0.4302
   20G       N2  630   3.274   5.007   4.295  0.1912  0.0145 -0.1036
   20G      H21  631   3.292   5.027   4.197  0.8644 -0.6405 -0.1252
   20G      H22  632   3.322   5.053   4.371 -0.5885  1.8387 -0.6613
   20G       N3  633   3.212   4.859   4.457 -1.0588 -0.2202 -0.1274
   20G       C4  634   3.122   4.759   4.492 -0.1646  0.7675 -0.2691
   20G      C3'  635   3.155   4.821   4.956 -0.2084  0.2042  0.1278
   20G      H3'  636   3.070   4.840   5.021  0.1951  0.6729  0.5269
   20G      C2'  637   3.095   4.833   4.813  0.3710 -0.6499 -0.9304
   20G      H2'  638   2.999   4.782   4.815 -0.1490  0.3049  0.6550
   20G      O2'  639   3.083   4.970   4.772  0.2315 -0.1714  0.2858
   20G     HO2'  640   3.141   5.013   4.836 -0.0649  2.7603 -1.2341
   20G      O3'  641   3.252   4.924   4.965 -0.4449 -0.0181  0.3070
   21U        P  642   3.277   5.005   5.097 -0.2528 -0.0761 -0.4039
   21U      OP1  643   3.262   4.914   5.213 -0.0183  0.7673  0.0572
   21U      OP2  644   3.198   5.130   5.088  0.0144  0.1894  0.3246
   21U      O5'  645   3.425   5.040   5.075  0.5536 -0.5496  0.5523
   21U      C5'  646   3.527   4.946   5.072 -0.3960  0.9501  0.2716
   21U      H5'  647   3.511   4.866   4.999  2.3548 -1.0938  1.7257
   21U     H5''  648   3.532   4.898   5.170 -2.0341  0.0725 -0.0338
   21U      C4'  649   3.656   5.005   5.033  0.0981  0.5111 -0.2885
   21U      H4'  650   3.732   4.933   5.065 -0.5852 -0.3232 -0.5277
   21U      O4'  651   3.668   5.026   4.893 -0.2239  0.3154 -0.5160
   21U      C1'  652   3.674   5.164   4.871 -0.1020 -0.0086 -0.1554
   21U      H1'  653   3.781   5.181   4.857 -0.4179  1.0323 -1.5814
   21U       N1  654   3.592   5.203   4.758 -0.0145 -0.2004 -0.1927
   21U       C6  655   3.461   5.152   4.753 -0.0692 -0.1325 -0.1852
   21U       H6  656   3.418   5.087   4.828  2.1104 -0.7441  0.6401
   21U       C5  657   3.390   5.172   4.640  0.4723  0.3105  1.0390
   21U       H5  658   3.290   5.134   4.621  0.6622  0.8322 -1.2614
   21U       C4  659   3.443   5.246   4.530  0.9189 -0.5007  0.0340
   21U       O4  660   3.386   5.256   4.423 -0.5995  0.8872 -0.1161
   21U       N3  661   3.569   5.297   4.547  0.5788 -0.0988  0.1973
   21U       H3  662   3.599   5.350   4.467 -1.4810 -0.7432 -1.0930
   21U       C2  663   3.650   5.273   4.658  0.2783 -0.5100  0.0597
   21U       O2  664   3.765   5.314   4.668 -0.1195  0.2255 -0.4242
   21U      C3'  665   3.675   5.138   5.105 -0.7293 -0.3378  0.0503
   21U      H3'  666   3.612   5.145   5.194 -1.6322 -0.6073 -0.5543
   21U      C2'  667   3.634   5.237   4.997  0.4525 -0.5029 -0.2081
   21U      H2'  668   3.526   5.250   4.995  0.4114 -0.0386  2.2019
   21U      O2'  669   3.711   5.357   4.993 -0.6023 -0.2717  0.0895
   21U     HO2'  670   3.711   5.396   5.080  0.9814  0.5816 -0.2456
   21U      O3'  671   3.810   5.154   5.128  0.3185  0.2718  0.1363
   22U        P  672   3.862   5.171   5.279 -0.5102  0.6568 -0.3459
   22U      OP1  673   3.771   5.264   5.349  0.1012 -0.5561 -0.0809
   22U      OP2  674   4.006   5.202   5.273  0.1529 -0.4752 -0.2396
   22U      O5'  675   3.849   5.017   5.338 -0.2132 -0.2785 -0.2272
   22U      C5'  676   3.929   4.910   5.302 -0.6038 -0.0810  0.4694
   22U      H5'  677   4.031   4.940   5.328 -0.4338 -1.2961  1.3277
   22U     H5''  678   3.917   4.893   5.195 -0.0366  2.7018 -0.0935
   22U      C4'  679   3.896   4.787   5.380  0.5847 -0.3053 -0.3240
   22U      H4'  680   3.977   4.714   5.369  0.7966 -0.1778  0.3537
   22U      O4'  681   3.880   4.819   5.519 -0.0096  0.1005  0.4519
   22U      C1'  682   3.752   4.778   5.569  0.5968 -0.2854  0.2052
   22U      H1'  683   3.751   4.676   5.606 -0.4185  0.3521  2.0416
   22U       N1  684   3.699   4.885   5.664 -0.6201  0.9189  0.8382
   22U       C6  685   3.688   5.013   5.622  0.6308  0.3473 -0.2191
   22U       H6  686   3.719   5.045   5.523  0.9401  0.9828  0.0726
   22U       C5  687   3.648   5.112   5.710 -0.9392 -0.4690  0.1401
   22U       H5  688   3.642   5.214   5.676  1.5995 -0.7139 -1.3442
   22U       C4  689   3.611   5.083   5.843  0.3711  0.5792 -0.3410
   22U       O4  690   3.574   5.163   5.933 -1.1953  0.3168 -0.2016
   22U       N3  691   3.612   4.941   5.872 -0.0884 -0.0260 -0.2103
   22U       H3  692   3.595   4.914   5.968 -0.9204 -0.2830 -0.4279
   22U       C2  693   3.662   4.844   5.789  0.1535  0.2118  0.2000
   22U       O2  694   3.653   4.724   5.817  0.6569  0.1438  0.3944
   22U      C3'  695   3.765   4.718   5.339  0.6573  0.1311 -0.8751
   22U      H3'  696   3.741   4.727   5.233 -0.5307  0.3140 -0.6001
   22U      C2'  697   3.668   4.771   5.450 -0.0089  0.1921  0.5574
   22U      H2'  698   3.632   4.864   5.407  0.0033  0.7241  1.6734
   22U      O2'  699   3.563   4.684   5.468  0.6574  0.0126 -0.1711
   22U     HO2'  700   3.502   4.688   5.395  0.9529  0.7513 -0.3926
   22U      O3'  701   3.792   4.576   5.362 -0.6628 -0.4631  0.0020
   23A        P  702   3.842   4.499   5.238 -0.1253  0.0430 -0.2456
   23A      OP1  703   3.839   4.353   5.268  0.2493  0.0242  0.6734
   23A      OP2  704   3.966   4.552   5.179  0.1611 -0.6067  0.0631
   23A      O5'  705   3.723   4.519   5.126  0.1344 -0.0716  0.5133
   23A      C5'  706   3.589   4.480   5.143  0.6282 -0.3346  0.8382
   23A      H5'  707   3.543   4.556   5.207  0.7551 -2.2178  3.3076
   23A     H5''  708   3.585   4.386   5.197  1.8118  0.2724  2.0480
   23A      C4'  709   3.523   4.470   5.007  0.0068 -0.0135  0.0808
   23A      H4'  710   3.416   4.447   5.010 -0.3547  1.5035 -0.1206
   23A      O4'  711   3.528   4.602   4.960 -0.3563  0.3269  0.3314
   23A      C1'  712   3.558   4.597   4.823 -0.0142  0.1042  0.2586
   23A      H1'  713   3.475   4.641   4.768  1.7222  0.4732 -2.1964
   23A       N9  714   3.673   4.678   4.790 -0.4575  0.3375 -0.0109
   23A       C8  715   3.798   4.681   4.845 -0.1165 -0.2183 -0.1234
   23A       H8  716   3.829   4.605   4.915  1.9326 -1.1938 -1.9521
   23A       N7  717   3.866   4.782   4.800 -0.0530 -0.6477  0.5026
   23A       C5  718   3.787   4.835   4.698  0.4387  0.5229 -0.3618
   23A       C6  719   3.793   4.946   4.618 -0.6314 -0.2089 -0.3477
   23A       N6  720   3.899   5.024   4.595 -0.3240  0.2109  0.2146
   23A      H61  721   3.889   5.106   4.536 -3.7937 -0.6914 -0.6483
   23A      H62  722   3.976   5.007   4.658 -1.5593 -0.7767  1.5250
   23A       N1  723   3.693   4.981   4.539 -0.6697  0.0754  0.3651
   23A       C2  724   3.581   4.906   4.545  0.2242  0.0447  0.2613
   23A       H2  725   3.503   4.940   4.478  1.4298  1.4959 -0.4809
   23A       N3  726   3.560   4.799   4.616 -0.2927 -0.6864 -0.4546
   23A       C4  727   3.669   4.772   4.697 -0.0342  0.0282 -0.3908
   23A      C3'  728   3.600   4.389   4.906  0.0292 -0.3638 -0.3871
   23A      H3'  729   3.708   4.393   4.923  0.1110 -0.8420 -0.7876
   23A      C2'  730   3.565   4.452   4.775  0.8675 -0.2872  0.3571
   23A      H2'  731   3.638   4.435   4.696 -0.4620  0.9210 -1.1871
   23A      O2'  732   3.434   4.419   4.736  0.3061  0.5064  0.3892
   23A     HO2'  733   3.401   4.463   4.658  0.5637 -1.8832 -1.1800
   23A      O3'  734   3.555   4.257   4.893  0.0192 -0.3990 -0.1378
   24A        P  735   3.656   4.141   4.863  0.3232  0.0458 -0.0595
   24A      OP1  736   3.791   4.181   4.890  0.2549  0.5818 -0.2554
   24A      OP2  737   3.632   4.075   4.734 -1.1608  0.4198  0.1906
   24A      O5'  738   3.614   4.040   4.974 -0.0035 -0.0884 -0.4091
   24A      C5'  739   3.633   4.074   5.111  0.5025 -0.3297  0.1187
   24A      H5'  740   3.595   4.175   5.126 -0.7170 -0.6395 -0.7483
   24A     H5''  741   3.739   4.065   5.136  0.1807 -1.4935  1.1342
   24A      C4'  742   3.551   3.997   5.214  0.2778 -0.1102  0.2372
   24A      H4'  743   3.596   4.012   5.312 -0.1284 -1.7225  0.7145
   24A      O4'  744   3.408   4.018   5.209 -0.0132 -0.1883 -0.3500
   24A      C1'  745   3.347   3.888   5.231 -0.0708  0.7362 -0.2684
   24A      H1'  746   3.280   3.879   5.316  3.5132 -2.2753  2.6340
   24A       N9  747   3.266   3.854   5.116  0.3665  0.3928 -0.0514
   24A       C8  748   3.264   3.905   4.990  0.3426 -0.1428 -0.4269
   24A       H8  749   3.342   3.974   4.959  0.1960  0.2756  0.1165
   24A       N7  750   3.173   3.856   4.911  0.5363 -0.7082 -0.2342
   24A       C5  751   3.106   3.765   4.992  0.2783 -0.3112  0.1211
   24A       C6  752   2.993   3.680   4.970  0.8616 -0.6676 -0.0756
   24A       N6  753   2.926   3.676   4.858 -0.2831  0.1857 -0.1179
   24A      H61  754   2.843   3.619   4.853 -1.2754  1.5936 -0.4047
   24A      H62  755   2.963   3.734   4.784 -2.3259  1.2049 -0.4381
   24A       N1  756   2.941   3.611   5.075  0.5153 -0.3610  0.5641
   24A       C2  757   3.008   3.615   5.192 -0.8642  0.2067  0.1183
   24A       H2  758   2.969   3.563   5.279  0.9189 -0.9562  0.2721
   24A       N3  759   3.119   3.684   5.223 -0.1877 -0.4686  0.3562
   24A       C4  760   3.165   3.759   5.117  0.6499  0.2618  0.3420
   24A      C3'  761   3.569   3.850   5.173  0.3610  0.6871  0.0509
   24A      H3'  762   3.555   3.833   5.066  0.1514  2.0494 -0.1556
   24A      C2'  763   3.456   3.782   5.246 -0.0487  0.5700  0.1753
   24A      H2'  764   3.422   3.695   5.189 -1.6108  1.4863 -0.3694
   24A      O2'  765   3.485   3.769   5.386  0.0255  0.6638  0.0415
   24A     HO2'  766   3.422   3.710   5.426  2.3028 -0.9631  1.4706
   24A      O3'  767   3.703   3.815   5.210  0.1330  0.2047 -0.0596
   25C        P  768   3.777   3.690   5.130  0.3331 -0.0723  0.2207
   25C      OP1  769   3.907   3.652   5.186 -0.8166  0.5617 -0.2391
   25C      OP2  770   3.764   3.702   4.981  0.3169  0.2979  0.5219
   25C      O5'  771   3.674   3.581   5.171 -0.1568  0.8422 -0.2946
   25C      C5'  772   3.678   3.528   5.297 -0.0486  0.4654 -0.4364
   25C      H5'  773   3.659   3.610   5.366  2.1838  0.8201 -0.1768
   25C     H5''  774   3.773   3.480   5.320 -0.5565 -0.3080  0.0971
   25C      C4'  775   3.575   3.425   5.321 -0.1734  0.4135  0.5016
   25C      H4'  776   3.570   3.387   5.423  0.4245 -0.7190  0.1370
   25C      O4'  777   3.449   3.476   5.289 -0.2230  0.0082 -0.1422
   25C      C1'  778   3.369   3.369   5.222  0.2899  1.0307 -0.3620
   25C      H1'  779   3.280   3.336   5.275  1.2124 -2.7522 -0.8644
   25C       N1  780   3.328   3.403   5.085 -0.4243  0.0014  0.5370
   25C       C6  781   3.389   3.494   5.006  0.6533  0.5083  0.3276
   25C       H6  782   3.475   3.550   5.038  0.2014  1.1084  0.5019
   25C       C5  783   3.340   3.523   4.880  0.1576  0.2072 -0.2116
   25C       H5  784   3.389   3.605   4.829 -1.3664  2.0755  1.1994
   25C       C4  785   3.220   3.453   4.843 -0.3825  0.1140  0.1689
   25C       N4  786   3.152   3.484   4.739 -0.2086  0.0890 -0.0893
   25C      H41  787   3.167   3.566   4.682  0.7298 -0.9230 -1.3483
   25C      H42  788   3.070   3.426   4.728  0.0755 -0.1143 -1.3270
   25C       N3  789   3.162   3.370   4.920 -0.1703 -0.4303  0.4597
   25C       C2  790   3.214   3.335   5.035  1.2401  0.1718 -0.3337
   25C       O2  791   3.150   3.245   5.092  0.1585 -0.6509  0.2643
   25C      C3'  792   3.590   3.311   5.220 -0.1290 -0.3400 -0.6360
   25C      H3'  793   3.605   3.348   5.119 -2.4271  0.7536 -0.6212
   25C      C2'  794   3.455   3.245   5.224 -0.6681 -0.5698 -0.5383
   25C      H2'  795   3.432   3.186   5.135 -0.5115  1.6892 -2.1637
   25C      O2'  796   3.427   3.168   5.337 -0.4142  0.2747  0.1125
   25C     HO2'  797   3.488   3.094   5.329 -2.2572 -1.3766  0.4672
   25C      O3'  798   3.696   3.225   5.258 -0.8513 -0.1677 -0.7699
   26A        P  799   3.766   3.143   5.155 -0.4294 -0.4180 -0.0682
   26A      OP1  800   3.862   3.052   5.219  0.1494  0.0684 -0.1339
   26A      OP2  801   3.823   3.236   5.054 -0.3288  0.1409 -0.0597
   26A      O5'  802   3.643   3.066   5.096 -0.8433 -0.1190 -0.4835
   26A      C5'  803   3.638   3.005   4.967 -0.2191 -0.3870 -0.0549
   26A      H5'  804   3.671   2.901   4.973  0.3525 -0.1435  1.3407
   26A     H5''  805   3.689   3.070   4.896 -1.0692  1.0504  0.6059
   26A      C4'  806   3.493   2.998   4.930 -0.9644  0.0148 -0.2396
   26A      H4'  807   3.442   2.954   5.015  1.1774 -1.5465  0.3393
   26A      O4'  808   3.425   3.122   4.918 -0.4399 -0.2973 -0.0533
   26A      C1'  809   3.344   3.130   4.809  0.0667 -0.1466  0.2283
   26A      H1'  810   3.244   3.168   4.832 -0.1443 -2.1046  3.0954
   26A       N9  811   3.387   3.224   4.706  0.5131  0.6345 -0.0801
   26A       C8  812   3.489   3.304   4.712  0.0795 -0.1139 -0.3392
   26A       H8  813   3.559   3.306   4.794 -0.6009  2.6810  0.3113
   26A       N7  814   3.496   3.387   4.613  0.0910  0.4729 -0.8231
   26A       C5  815   3.380   3.370   4.543 -0.7460 -0.5621  0.3026
   26A       C6  816   3.324   3.435   4.428  0.0285 -1.4594  0.4381
   26A       N6  817   3.376   3.536   4.364 -0.2241  0.0579  0.1781
   26A      H61  818   3.347   3.549   4.268  1.9939  1.4033 -0.3710
   26A      H62  819   3.464   3.565   4.403  0.4086 -1.3380 -0.1722
   26A       N1  820   3.210   3.386   4.378 -0.5667  0.3045  0.4563
   26A       C2  821   3.157   3.282   4.444  0.4816 -0.0303 -0.1989
   26A       H2  822   3.058   3.255   4.409  0.6419 -1.3825  0.3275
   26A       N3  823   3.198   3.221   4.554  0.0174 -0.2707  0.3472
   26A       C4  824   3.314   3.263   4.595  0.5900 -0.2042  0.1347
   26A      C3'  825   3.459   2.923   4.802 -0.0047 -0.2710  0.1962
   26A      H3'  826   3.540   2.943   4.732 -0.0557 -1.3058 -0.1747
   26A      C2'  827   3.327   2.985   4.758 -1.0442 -0.3327 -0.8782
   26A      H2'  828   3.326   2.990   4.649 -2.7461 -0.4652 -0.8980
   26A      O2'  829   3.211   2.923   4.815 -0.2535  0.0992  0.0250
   26A     HO2'  830   3.244   2.842   4.855  1.5597  0.0597 -1.4372
   26A      O3'  831   3.437   2.789   4.831 -0.1251 -0.4220  0.5599
   27A        P  832   3.480   2.679   4.727  0.0400  0.0904 -0.0119
   27A      OP1  833   3.423   2.559   4.781  0.0581  0.5453  0.5924
   27A      OP2  834   3.624   2.683   4.694 -0.0597  0.2595 -0.0760
   27A      O5'  835   3.396   2.713   4.590 -0.1618 -0.2342  0.4011
   27A      C5'  836   3.259   2.688   4.589  0.1663  0.5572 -0.0792
   27A      H5'  837   3.206   2.734   4.672  0.1394 -0.6593  0.6134
   27A     H5''  838   3.249   2.579   4.597  0.6329  0.5446  0.3481
   27A      C4'  839   3.193   2.751   4.462 -0.1075  0.3898  0.3956
   27A      H4'  840   3.088   2.727   4.449  0.0572  0.3755 -1.0503
   27A      O4'  841   3.204   2.893   4.469  0.2825  0.3575  0.1270
   27A      C1'  842   3.219   2.937   4.338 -0.2493  0.0490  0.5350
   27A      H1'  843   3.135   2.997   4.305  0.6718  1.0483 -0.0319
   27A       N9  844   3.350   3.014   4.320  0.1058  0.0236  0.1900
   27A       C8  845   3.457   3.015   4.403  0.0750  0.3068 -0.2263
   27A       H8  846   3.455   2.945   4.485 -0.6847 -1.0698 -1.3695
   27A       N7  847   3.539   3.122   4.392 -0.0056 -0.4704  0.2474
   27A       C5  848   3.488   3.178   4.273  0.0657  0.6051  0.3312
   27A       C6  849   3.519   3.287   4.190 -0.1409 -0.1284  0.0696
   27A       N6  850   3.607   3.377   4.215 -0.2656  0.3673  0.1393
   27A      H61  851   3.612   3.460   4.158  1.9926  0.9788  1.1433
   27A      H62  852   3.663   3.363   4.298 -0.4788  0.7199  0.3434
   27A       N1  853   3.442   3.326   4.091  0.3935  0.5089  0.2567
   27A       C2  854   3.330   3.249   4.069 -0.3115 -0.4536 -0.4071
   27A       H2  855   3.263   3.288   3.994 -1.0484  1.6185  1.2489
   27A       N3  856   3.284   3.143   4.133 -0.1538 -0.6628 -0.3426
   27A       C4  857   3.368   3.117   4.235  0.2094  0.5321  0.4244
   27A      C3'  858   3.274   2.705   4.336  0.4126  0.4177 -0.2459
   27A      H3'  859   3.382   2.718   4.345  0.5311  1.3869 -2.3910
   27A      C2'  860   3.233   2.816   4.243  0.1292  0.0510 -0.3455
   27A      H2'  861   3.309   2.839   4.169  0.2392 -1.7706 -0.8407
   27A      O2'  862   3.111   2.791   4.186 -0.0295 -0.1361  0.8660
   27A     HO2'  863   3.067   2.729   4.244  0.4566  1.2730  2.8420
   27A      O3'  864   3.234   2.576   4.297 -0.7343 -0.1022  0.1070
   28A        P  865   3.325   2.482   4.208 -0.2629 -0.4650 -0.0383
   28A      OP1  866   3.293   2.343   4.237  0.1183 -0.1227 -0.4788
   28A      OP2  867   3.466   2.530   4.222 -0.0185  0.0780 -0.2872
   28A      O5'  868   3.277   2.518   4.062 -0.1231  0.1880  0.1918
   28A      C5'  869   3.144   2.508   4.029  0.4681  0.1863  0.0790
   28A      H5'  870   3.091   2.584   4.086  1.9372 -0.1207  1.9401
   28A     H5''  871   3.107   2.407   4.045  1.5864 -0.3464 -0.5495
   28A      C4'  872   3.115   2.536   3.879 -0.9596 -0.3302 -0.0388
   28A      H4'  873   3.013   2.507   3.853 -1.7296  2.7101 -0.7868
   28A      O4'  874   3.119   2.677   3.858 -0.5366 -0.4535  0.8892
   28A      C1'  875   3.236   2.694   3.780 -0.7446  0.1306  0.5421
   28A      H1'  876   3.203   2.699   3.677  0.0606 -2.2736  0.0944
   28A       N9  877   3.308   2.819   3.799  0.4971  0.7325  0.0359
   28A       C8  878   3.434   2.840   3.851 -0.0041 -0.0673  0.3766
   28A       H8  879   3.502   2.761   3.879  1.9161  0.2026 -3.0187
   28A       N7  880   3.470   2.963   3.847  0.6429  0.2901 -0.8875
   28A       C5  881   3.356   3.026   3.796 -0.0965 -0.5700 -0.2837
   28A       C6  882   3.326   3.158   3.751  0.0545  0.0045  0.6461
   28A       N6  883   3.414   3.258   3.759  0.3144 -0.4123  0.8112
   28A      H61  884   3.387   3.343   3.712  0.5483 -1.4627 -1.3338
   28A      H62  885   3.509   3.235   3.782  0.5597  0.4367  0.6880
   28A       N1  886   3.219   3.184   3.676 -0.5444  0.5451 -0.3681
   28A       C2  887   3.133   3.089   3.659  0.1101 -0.1701  0.0986
   28A       H2  888   3.046   3.118   3.603  0.7968  2.1480  0.1309
   28A       N3  889   3.152   2.963   3.694  0.6076 -0.0729 -0.2029
   28A       C4  890   3.265   2.936   3.758  0.1275 -0.3473 -0.9796
   28A      C3'  891   3.227   2.462   3.798  0.0174 -0.1709 -0.4768
   28A      H3'  892   3.258   2.374   3.855 -1.0818  0.0001  0.4405
   28A      C2'  893   3.338   2.570   3.790  0.3805  0.2833 -1.3318
   28A      H2'  894   3.392   2.578   3.884 -0.7637 -0.5804 -0.5768
   28A      O2'  895   3.421   2.573   3.683  0.0908 -0.0023  0.5043
   28A     HO2'  896   3.509   2.538   3.700 -0.1649 -0.4271  0.9995
   28A      O3'  897   3.167   2.429   3.670  0.4192 -0.7391 -0.0950
   29A        P  898   3.198   2.286   3.607 -0.0244  0.6845  0.2209
   29A      OP1  899   3.105   2.184   3.662  0.6454  0.3539  0.3513
   29A      OP2  900   3.346   2.269   3.618 -0.1678  0.2768  0.2151
   29A      O5'  901   3.160   2.333   3.461  0.6188  0.0772 -0.3303
   29A      C5'  902   3.258   2.406   3.386  0.7640 -0.6350  0.0858
   29A      H5'  903   3.293   2.344   3.304 -1.6704 -3.4946  1.0206
   29A     H5''  904   3.342   2.443   3.445 -0.2701  0.1163  1.1267
   29A      C4'  905   3.187   2.528   3.336 -0.0047 -0.5186 -0.1657
   29A      H4'  906   3.093   2.503   3.287  0.2177 -0.8566 -0.4250
   29A      O4'  907   3.173   2.634   3.430 -0.0626  0.6113 -0.1661
   29A      C1'  908   3.209   2.760   3.371  0.1180 -0.5986  0.4478
   29A      H1'  909   3.131   2.833   3.393  0.6854 -0.0530  0.6873
   29A       N9  910   3.341   2.818   3.404 -0.2281 -0.0139 -0.3963
   29A       C8  911   3.444   2.763   3.474  0.1003  0.7704 -0.3663
   29A       H8  912   3.450   2.656   3.484 -0.5680  0.3939 -3.0038
   29A       N7  913   3.525   2.851   3.524 -0.3452  0.2764 -1.0377
   29A       C5  914   3.481   2.975   3.479  0.0748  0.2741 -0.2190
   29A       C6  915   3.521   3.108   3.476 -0.6535  0.2370 -0.5457
   29A       N6  916   3.630   3.149   3.540 -0.0580 -0.0959 -0.2206
   29A      H61  917   3.668   3.242   3.529 -0.9300  0.2582 -0.3303
   29A      H62  918   3.679   3.077   3.592  0.1792  0.2527  0.0447
   29A       N1  919   3.456   3.199   3.411 -0.2589  0.2677 -0.2729
   29A       C2  920   3.346   3.161   3.343 -0.2254  0.0002 -0.2778
   29A       H2  921   3.300   3.239   3.283  2.7075  2.6482  0.6497
   29A       N3  922   3.291   3.043   3.337 -0.0838 -0.3813 -0.7047
   29A       C4  923   3.366   2.950   3.404  0.8274 -0.6326  0.3510
   29A      C3'  924   3.281   2.585   3.227 -0.2854 -1.0471  0.6189
   29A      H3'  925   3.385   2.596   3.256 -0.2064 -1.5073  0.5108
   29A      C2'  926   3.227   2.731   3.226  0.1127  0.5118 -0.4886
   29A      H2'  927   3.298   2.796   3.174  0.6702 -0.1598 -0.5850
   29A      O2'  928   3.100   2.732   3.165  0.2120  0.0455 -0.3209
   29A     HO2'  929   3.084   2.647   3.123 -0.2238 -0.7297  1.3540
   29A      O3'  930   3.261   2.514   3.108  0.0259  0.0772 -0.6250
   30C        P  931   3.381   2.494   3.002 -0.2036  0.2904  0.0097
   30C      OP1  932   3.352   2.401   2.892 -0.0721  0.4479  0.2577
   30C      OP2  933   3.508   2.468   3.075 -0.0656  0.0910  0.3040
   30C      O5'  934   3.403   2.638   2.942 -0.2223 -0.6135  0.3855
   30C      C5'  935   3.309   2.705   2.856  0.3362  0.3935 -0.1520
   30C      H5'  936   3.209   2.702   2.898 -0.1878 -0.2030 -1.3832
   30C     H5''  937   3.315   2.657   2.758  0.8279 -0.0030  0.0644
   30C      C4'  938   3.345   2.852   2.848  0.3134 -0.2986  0.2832
   30C      H4'  939   3.271   2.904   2.788  0.3313 -0.1712  0.3711
   30C      O4'  940   3.339   2.909   2.976 -0.1452  0.4413  0.0225
   30C      C1'  941   3.423   3.023   2.979 -1.0848  0.0612 -1.0512
   30C      H1'  942   3.366   3.115   2.989 -0.0737  0.7654 -1.6113
   30C       N1  943   3.531   2.999   3.086  0.1542  1.0236  0.4397
   30C       C6  944   3.558   2.878   3.148 -0.4283  0.0584 -0.1263
   30C       H6  945   3.497   2.793   3.120 -1.2241  0.1448  1.2516
   30C       C5  946   3.659   2.855   3.235  0.1729  0.0581  0.5008
   30C       H5  947   3.678   2.756   3.273  0.8744  1.0301  2.8516
   30C       C4  948   3.734   2.964   3.270  0.1773  0.3347 -0.0336
   30C       N4  949   3.836   2.945   3.351  0.3201 -0.3259  0.4995
   30C      H41  950   3.837   2.854   3.394  0.3708 -0.9187 -0.7146
   30C      H42  951   3.876   3.028   3.393  1.2574  2.0977 -4.3783
   30C       N3  952   3.715   3.083   3.212 -0.4010 -0.6919 -0.1846
   30C       C2  953   3.619   3.102   3.117 -0.2415 -0.4893  0.4319
   30C       O2  954   3.613   3.208   3.056  0.1728  0.2264  0.2582
   30C      C3'  955   3.483   2.884   2.799 -0.2190  0.3335  0.1911
   30C      H3'  956   3.562   2.821   2.839 -0.5771  0.3815  0.9861
   30C      C2'  957   3.488   3.032   2.843 -0.1226  0.3879  0.1195
   30C      H2'  958   3.589   3.075   2.846  0.1973 -0.1559 -1.5828
   30C      O2'  959   3.410   3.113   2.750  0.5051  0.0466  0.0782
   30C     HO2'  960   3.372   3.056   2.683 -0.8280  1.3455 -0.3247
   30C      O3'  961   3.470   2.865   2.663  0.0864 -0.2074 -0.1991
   31A        P  962   3.592   2.809   2.580 -0.1026  0.1736 -0.3079
   31A      OP1  963   3.543   2.786   2.444 -0.2309 -0.4736  0.6108
   31A      OP2  964   3.657   2.703   2.657  0.8319  0.0532  0.0107
   31A      O5'  965   3.686   2.937   2.571  0.0748  0.4251 -0.1409
   31A      C5'  966   3.642   3.057   2.508 -0.9179  0.2067  0.0525
   31A      H5'  967   3.567   3.110   2.566 -1.8869 -1.2271  0.1716
   31A     H5''  968   3.603   3.038   2.409  1.6275 -0.6355 -0.8793
   31A      C4'  969   3.767   3.147   2.480 -0.1409  0.8031  0.9246
   31A      H4'  970   3.732   3.220   2.408 -0.6842 -1.1853 -0.9353
   31A      O4'  971   3.806   3.215   2.599  0.6075 -0.1809  0.2769
   31A      C1'  972   3.935   3.174   2.647  0.5600  0.1170 -0.4646
   31A      H1'  973   4.018   3.244   2.631  0.3361  0.6039  0.4226
   31A       N9  974   3.932   3.125   2.785  0.6010  0.0933 -0.0019
   31A       C8  975   3.872   3.010   2.840 -0.2807 -0.2522 -0.1615
   31A       H8  976   3.806   2.938   2.794  1.0883 -1.6498  0.0011
   31A       N7  977   3.904   2.991   2.966 -0.1409  0.2230 -0.0084
   31A       C5  978   3.997   3.091   2.992  0.1943 -0.1952  0.4745
   31A       C6  979   4.074   3.141   3.098 -1.0346  0.7569 -0.3420
   31A       N6  980   4.075   3.089   3.217 -0.5513  0.2281 -0.1158
   31A      H61  981   4.144   3.121   3.283  0.2163 -2.8581  0.7132
   31A      H62  982   3.994   3.033   3.234 -0.4253 -0.4722 -1.6207
   31A       N1  983   4.165   3.237   3.092  0.2120 -0.4043  0.1664
   31A       C2  984   4.173   3.299   2.980 -0.3136 -0.2473  0.3096
   31A       H2  985   4.246   3.378   2.984  0.0399 -0.5695  0.2995
   31A       N3  986   4.097   3.275   2.873  0.0484  0.8731 -0.2765
   31A       C4  987   4.012   3.171   2.882 -0.1922  0.6998  0.1876
   31A      C3'  988   3.889   3.067   2.425  1.2451 -0.3234 -0.4100
   31A      H3'  989   3.870   2.966   2.388 -0.4868 -0.5877  1.0526
   31A      C2'  990   3.962   3.058   2.555 -0.2746  0.4623 -0.2090
   31A      H2'  991   3.918   2.969   2.601 -0.6664 -0.5526 -2.4336
   31A      O2'  992   4.102   3.033   2.532  0.4095  0.1671 -0.3585
   31A     HO2'  993   4.135   2.997   2.615 -1.6080  0.5679  0.6718
   31A      O3'  994   3.943   3.156   2.328 -0.6000 -0.5615 -0.4002
   32A        P  995   3.992   3.093   2.195 -0.4922  0.1645 -0.2394
   32A      OP1  996   3.870   3.083   2.112  0.0627  0.3542 -0.5899
   32A      OP2  997   4.083   2.981   2.215 -0.0644  0.5812 -0.0546
   32A      O5'  998   4.078   3.202   2.127  0.2294 -0.1370 -0.4918
   32A      C5'  999   4.025   3.312   2.065 -0.4484  0.5069  0.0767
   32A      H5' 1000   3.928   3.340   2.106 -0.9572 -1.4862  0.3548
   32A     H5'' 1001   4.008   3.285   1.961 -0.6617 -1.3195  0.5427
   32A      C4' 1002   4.125   3.423   2.058  0.2015  0.5429  0.1259
   32A      H4' 1003   4.090   3.498   1.986 -1.0618 -0.4292 -0.2975
   32A      O4' 1004   4.135   3.486   2.184 -0.0039  0.3852  0.2059
   32A      C1' 1005   4.269   3.530   2.197  0.0006  0.2178 -0.2426
   32A      H1' 1006   4.272   3.637   2.217  2.4699 -0.1323  1.7207
   32A       N9 1007   4.332   3.460   2.309  0.1060  0.1538  0.2121
   32A       C8 1008   4.286   3.341   2.362 -0.3149 -0.0247 -0.1554
   32A       H8 1009   4.194   3.289   2.339 -1.4888  1.5386  0.7872
   32A       N7 1010   4.365   3.307   2.460  0.2792 -0.0454  0.2905
   32A       C5 1011   4.470   3.398   2.460 -0.0232  0.8993 -1.4683
   32A       C6 1012   4.580   3.412   2.539 -0.5662 -0.9061 -0.8436
   32A       N6 1013   4.620   3.338   2.638  0.3468  0.5241 -0.0258
   32A      H61 1014   4.701   3.368   2.690  0.1528  2.4794 -0.7322
   32A      H62 1015   4.549   3.271   2.665  0.6110  0.4192  0.4064
   32A       N1 1016   4.660   3.515   2.520 -0.5295  0.2041 -0.2123
   32A       C2 1017   4.632   3.604   2.427 -0.3211  0.1982  0.3839
   32A       H2 1018   4.695   3.686   2.399 -1.0463  0.8926  0.7532
   32A       N3 1019   4.527   3.601   2.347  0.0991  0.7098  0.0662
   32A       C4 1020   4.452   3.492   2.369  0.6991 -1.0474 -0.3824
   32A      C3' 1021   4.267   3.379   2.018 -0.0085  0.4901  0.1347
   32A      H3' 1022   4.302   3.295   2.078  0.3454  0.1291 -0.5629
   32A      C2' 1023   4.342   3.492   2.068  0.6882 -1.5505 -0.2533
   32A      H2' 1024   4.445   3.460   2.081  0.1866 -2.6648  1.2553
   32A      O2' 1025   4.325   3.602   1.979 -0.3680 -0.0040 -0.2136
   32A     HO2' 1026   4.341   3.575   1.888  0.4079 -0.0912 -0.0594
   32A      O3' 1027   4.286   3.363   1.881 -0.5792  0.5409 -0.1267
   33G3       P 1028   4.338   3.232   1.825  0.2325  0.1325 -0.2218
   33G3     OP1 1029   4.383   3.252   1.688  0.6886  0.0265  0.7085
   33G3     OP2 1030   4.229   3.133   1.844  0.1725  0.2746 -0.2130
   33G3     O5' 1031   4.469   3.199   1.914  0.1452  0.1216  0.1607
   33G3     C5' 1032   4.577   3.291   1.894  0.5536 -0.7891  0.0916
   33G3     H5' 1033   4.542   3.394   1.894  0.9295 -0.6594  0.2140
   33G3    H5'' 1034   4.615   3.273   1.793 -2.2115 -0.0185 -1.1971
   33G3     C4' 1035   4.686   3.274   1.996 -0.8220  0.1898  0.7850
   33G3     H4' 1036   4.763   3.338   1.953  0.4032 -2.7236 -1.7869
   33G3     O4' 1037   4.641   3.314   2.126 -0.4817 -0.1588  0.2258
   33G3     C1' 1038   4.698   3.217   2.206  0.4660 -0.2553  0.3981
   33G3     H1' 1039   4.739   3.271   2.291  1.0276  0.5456 -0.3688
   33G3      N9 1040   4.594   3.124   2.262 -0.6069  0.3974 -0.0750
   33G3      C8 1041   4.474   3.077   2.216  0.1511 -0.5586  0.8372
   33G3      H8 1042   4.432   3.103   2.120 -1.6306  0.0982  1.7430
   33G3      N7 1043   4.416   2.983   2.287  0.3040  0.3185 -0.1233
   33G3      C5 1044   4.497   2.977   2.395 -0.1912 -0.0724 -0.1972
   33G3      C6 1045   4.494   2.895   2.510 -0.3327 -0.1246 -0.1067
   33G3      O6 1046   4.410   2.806   2.538 -0.0738  0.0231 -0.0501
   33G3      N1 1047   4.594   2.924   2.601 -0.8510 -0.3468 -0.1973
   33G3      H1 1048   4.591   2.881   2.692 -0.8051 -0.9166 -0.4621
   33G3      C2 1049   4.693   3.015   2.582 -0.1158 -0.7539  0.8756
   33G3      N2 1050   4.768   3.049   2.685  0.5156  0.0761 -0.0684
   33G3     H21 1051   4.769   2.989   2.766 -0.9986 -2.4532 -1.8058
   33G3     H22 1052   4.844   3.112   2.663  1.7428 -1.1975  0.3730
   33G3      N3 1053   4.712   3.076   2.465 -0.9533  0.4798 -0.6086
   33G3      C4 1054   4.609   3.056   2.377 -0.5715 -0.6716 -0.2153
   33G3     C3' 1055   4.745   3.129   2.000  0.3444  0.1598 -0.8296
   33G3     H3' 1056   4.665   3.056   1.991 -0.4456  1.2086 -2.9569
   33G3     C2' 1057   4.808   3.134   2.141  0.4517 -0.3459 -1.1681
   33G3     H2' 1058   4.826   3.031   2.173  0.7535 -0.0695 -0.4154
   33G3     O2' 1059   4.926   3.213   2.149  0.1922  0.5791 -0.3615
   33G3    HO2' 1060   4.991   3.195   2.081  0.6002 -1.5836  0.5071
   33G3     O3' 1061   4.840   3.106   1.897  0.1127  0.2426  0.2241
   33G3    HO3' 1062   4.884   3.024   1.920 -0.0217  0.8666  3.1989
   34K+      K+ 1063   3.996   4.122   3.916  0.0553 -0.1128  0.0650
   35K+      K+ 1064   3.768   3.442   4.651 -0.0941  0.3688 -0.1276
   36K+      K+ 1065   2.160   2.315   3.907  0.0720  0.0503 -0.0197
   37K+      K+ 1066   4.708   4.592   4.670  0.2912  0.0556  0.0456
   38K+      K+ 1067   4.558   4.178   3.744  0.1505 -0.0239 -0.3347
   39K+      K+ 1068   4.205   2.819   2.368  0.4115 -0.3717 -0.0248
   40K+      K+ 1069   4.179   5.224   4.006  0.3984 -0.1397  0.3150
   41K+      K+ 1070   3.969   2.847   4.874 -0.2370 -0.4506  0.3478
   42K+      K+ 1071   2.711   4.086   3.978  0.3194  0.3936 -0.1343
   43K+      K+ 1072   0.276   4.419   1.794 -0.1525  0.0910  0.1696
   44K+      K+ 1073   1.740   4.040   0.763  0.0896  0.0030 -0.4040
   45K+      K+ 1074   2.931   2.298   2.600 -0.3489  0.1935 -0.2676
   46K+      K+ 1075   5.128   3.614   3.835  0.3710  0.0578  0.5060
   47K+      K+ 1076   3.741   4.445   3.671 -0.1523 -0.1426 -0.2833
   48K+      K+ 1077   1.229   4.340   6.338 -0.1407 -0.0765  0.0551
   49K+      K+ 1078   4.818   3.353   3.631  0.0590 -0.5862  0.2503
   50K+      K+ 1079   0.607   0.534   5.932 -0.3586  0.0568  0.1191
   51K+      K+ 1080   4.599   2.148   3.871 -0.1571 -0.1339 -0.1604
   52K+      K+ 1081   3.855   1.788   4.062  0.1483  0.0106  0.1668
   53K+      K+ 1082   6.498   6.156   2.488  0.3625  0.0900  0.0809
   54K+      K+ 1083   3.936   2.772   5.288  0.0430  0.3879  0.0185
   55K+      K+ 1084   3.847   2.329   3.756  0.3322  0.1735 -0.0124
   56K+      K+ 1085   4.451   2.991   3.982  0.3356 -0.3480  0.3305
   57K+      K+ 1086   4.153   3.951   2.540 -0.2968 -0.1553 -0.2740
   58K+      K+ 1087   1.947   2.572   5.983 -0.4619  0.2850 -0.3580
   59K+      K+ 1088   2.983   4.979   1.971  0.4699 -0.0527 -0.2775
   60K+      K+ 1089   3.139   4.221   7.476  0.1061 -0.1495 -0.1438
   61K+      K+ 1090   2.755   4.426   4.381  0.1796 -0.1028  0.1744
   62K+      K+ 1091   3.797   7.503   2.150 -0.3105 -0.2761 -0.3268
   63K+      K+ 1092   4.015   5.625   4.899  0.1179 -0.2870 -0.3438
   64K+      K+ 1093   5.822   3.290   2.747 -0.0512 -0.1855  0.1202
   65K+      K+ 1094   6.798   6.305   4.594  0.1829  0.1006 -0.0190
   66K+      K+ 1095   4.589   0.961   4.558  0.1324 -0.0421  0.3474
   67K+      K+ 1096   5.856   6.449   4.818  0.2404  0.3502  0.1506
   68K+      K+ 1097   0.588   4.657   3.323  0.0359 -0.1324  0.0273
   69K+      K+ 1098   4.855   0.943   7.003 -0.2391  0.6334 -0.4128
   70K+      K+ 1099   3.633   2.765   1.966  0.4836 -0.4073  0.3407
   71K+      K+ 1100   3.388   4.941   2.763  0.1349  0.0785  0.1931
   72K+      K+ 1101   5.481   1.279   2.484  0.0752 -0.0748 -0.1550
   73K+      K+ 1102   2.894   3.300   4.955 -0.2051 -0.0764 -0.3392
   74K+      K+ 1103   1.352   0.170   2.621 -0.3141  0.1235 -0.0293
   75K+      K+ 1104   2.695   1.274   1.918 -0.0856  0.4372 -0.0309
   76K+      K+ 1105   5.290   6.759   1.501 -0.3732  0.1159  0.2762
   77K+      K+ 1106   0.897   3.736   1.686 -0.5673  0.2936  0.2750
   78K+      K+ 1107   4.339   4.369   3.944  0.2908  0.3300 -0.2311
   79K+      K+ 1108   6.316   1.294   4.160  0.2309  0.4321 -0.0612
   80K+      K+ 1109   2.447   4.845   4.686  0.2493  0.2570 -0.0692
   81K+      K+ 1110   1.697   4.019   3.040 -0.3131 -0.0773 -0.0296
   82K+      K+ 1111   5.496   2.384   6.352 -0.1786 -0.0789 -0.1065
   83K+      K+ 1112   4.647   3.640   7.187  0.5135  0.0716  0.3057
   84K+      K+ 1113   2.549   3.923   3.067 -0.1827  0.1076  0.2497
   85K+      K+ 1114   2.865   7.340   0.706  0.1847 -0.2615  0.1744
   86K+      K+ 1115   4.380   3.647   4.860  0.0314 -0.0919  0.0210
   87Cl-    Cl- 1116   5.141   1.150   1.372  0.2207  0.2595 -0.1534
   88Cl-    Cl- 1117   5.849   5.238   4.596 -0.1481  0.1394  0.2989
   89Cl-    Cl- 1118   2.342   7.417   1.653 -0.0826  0.0060  0.2076
   90Cl-    Cl- 1119   0.843   2.996   0.665  0.1545  0.2812  0.3675
   91Cl-    Cl- 1120   6.466   5.587   2.619  0.0175  0.0655  0.3975
   92Cl-    Cl- 1121   6.338   0.721   3.690  0.5292  0.1680 -0.1991
   93Cl-    Cl- 1122   0.471   5.450   1.517 -0.0766 -0.2228  0.1358
   94Cl-    Cl- 1123   5.261   1.251   5.188 -0.2720 -0.2218 -0.0357
   95Cl-    Cl- 1124   4.699   1.755   2.425 -0.4002  0.4402 -0.3018
   96Cl-    Cl- 1125   1.764   2.445   6.432  0.1705 -0.1224  0.0629
   97Cl-    Cl- 1126   7.257   7.212   5.643  0.2255  0.1542 -0.2319
   98Cl-    Cl- 1127   5.068   3.065   5.466  0.2740  0.2851  0.2753
   99Cl-    Cl- 1128   0.410   3.625   4.255  0.2398  0.1581  0.1018
  100Cl-    Cl- 1129   4.120   1.465   0.839  0.0333  0.0642 -0.0295
  101Cl-    Cl- 1130   5.360   5.899   1.211 -0.3552 -0.4866  0.2450
  102Cl-    Cl- 1131   0.484   5.520   4.084 -0.1942 -0.2152 -0.2769
  103Cl-    Cl- 1132   1.112   5.550   6.359 -0.1583  0.4738 -0.2022
  104Cl-    Cl- 1133   1.394   4.419   4.858 -0.5502  0.0696  0.2090
  105Cl-    Cl- 1134   3.207   1.105   7.549 -0.2769 -0.2190 -0.0365
  106Cl-    Cl- 1135   7.250   1.756   1.752  0.3803  0.3934  0.1070
  107Cl-    Cl- 1136   3.226   1.982   6.767 -0.0049 -0.4662  0.2333
  108WAT      O 1137   2.477   4.053   4.373 -0.8103 -0.6892  0.4536
  108WAT     H1 1138   2.560   4.040   4.396 -0.9900  0.4212  1.8488
  108WAT     H2 1139   2.474   4.026   4.290  1.1126 -0.1320  0.1539
  108WAT    EPW 1140   2.489   4.047   4.364  0.0163  0.0780  0.5269
  109WAT      O 1141   0.797   6.291   6.886  0.2725  0.1468 -0.3499
  109WAT     H1 1142   0.728   6.335   6.856  1.4708  1.1186 -1.8517
  109WAT     H2 1143   0.822   6.242   6.818  1.4068  0.2830 -0.0527
  109WAT    EPW 1144   0.790   6.290   6.871  0.1514 -0.3614  0.1895
  110WAT      O 1145   2.474   4.274   1.965 -0.6616  0.2489  0.7236
  110WAT     H1 1146   2.540   4.325   1.940 -0.6486  0.3618  0.9890
  110WAT     H2 1147   2.506   4.230   2.033 -0.2521 -1.0327 -0.2594
  110WAT    EPW 1148   2.488   4.275   1.971  0.0347 -0.1318  0.2308
  111WAT      O 1149   2.894   2.927   0.495  0.4860 -0.0039 -0.3804
  111WAT     H1 1150   2.978   2.919   0.516  0.0189 -1.1577  1.2808
  111WAT     H2 1151   2.865   2.844   0.493 -0.5135  0.3418 -1.3752
  111WAT    EPW 1152   2.902   2.913   0.498  0.4937  0.0412 -0.2344
  112WAT      O 1153   6.379   5.414   7.338 -0.1390 -0.1883  0.1070
  112WAT     H1 1154   6.295   5.437   7.330  0.3176  1.5663 -0.1628
  112WAT     H2 1155   6.398   5.438   7.420  1.1106  3.4403 -1.0356
  112WAT    EPW 1156   6.369   5.421   7.349 -0.2350 -0.1363 -0.9224
  113WAT      O 1157   4.667   3.045   0.705  0.5136 -0.2727 -0.1224
  113WAT     H1 1158   4.580   3.047   0.712  0.3794 -0.1866 -1.4646
  113WAT     H2 1159   4.683   2.967   0.669  0.5967  1.1646 -3.5895
  113WAT    EPW 1160   4.657   3.033   0.701 -0.7519 -0.1215 -0.7297
  114WAT      O 1161   0.470   7.158   2.779  0.4405  0.1955 -0.2143
  114WAT     H1 1162   0.523   7.199   2.836  1.7649 -0.6019 -0.8268
  114WAT     H2 1163   0.437   7.223   2.731  1.2408  0.6797 -0.1265
  114WAT    EPW 1164   0.473   7.174   2.781 -0.3043 -0.8195 -0.1771
  115WAT      O 1165   4.785   0.633   2.244  0.3265 -0.4575  0.1311
  115WAT     H1 1166   4.861   0.634   2.286 -0.2569 -3.2533  1.5053
  115WAT     H2 1167   4.775   0.549   2.223 -0.2363  0.4447 -4.2816
  115WAT    EPW 1168   4.795   0.621   2.247  0.0965 -0.0821 -0.0717
  116WAT      O 1169   0.332   3.231   6.787 -0.3436  0.5148 -0.3121
  116WAT     H1 1170   0.291   3.286   6.840 -0.3168  0.4196 -0.1921
  116WAT     H2 1171   0.329   3.155   6.829  0.2676  0.5845 -0.1405
  116WAT    EPW 1172   0.325   3.228   6.801  0.5538 -0.3342 -0.1406
  117WAT      O 1173   0.598   3.981   0.556 -0.0634 -0.0164  1.0863
  117WAT     H1 1174   0.535   3.925   0.535  0.6086 -2.2114  4.1887
  117WAT     H2 1175   0.555   4.048   0.592 -0.7255  0.0454  0.2074
  117WAT    EPW 1176   0.582   3.983   0.558 -0.0940  0.6630  0.4078
  118WAT      O 1177   5.994   3.029   4.220  0.2607  0.0451 -0.6882
  118WAT     H1 1178   6.069   3.045   4.178  0.4199  0.7368 -0.1580
  118WAT     H2 1179   5.982   2.944   4.208  0.8044  0.0434 -1.3155
  118WAT    EPW 1180   6.003   3.019   4.212  0.4890 -0.2271  0.3001
  119WAT      O 1181   1.758   1.550   5.393 -0.3653  0.6227 -0.3316
  119WAT     H1 1182   1.721   1.474   5.416  0.3002  0.7191  1.1795
  119WAT     H2 1183   1.820   1.526   5.337 -1.4679  0.2812 -1.4501
  119WAT    EPW 1184   1.762   1.535   5.388  0.5006 -0.1419  0.3604
  120WAT      O 1185   0.101   1.271   6.501  0.2495 -0.5058 -0.3135
  120WAT     H1 1186   0.148   1.197   6.503 -1.2454 -1.4876  0.5602
  120WAT     H2 1187   0.098   1.296   6.584  1.5199  1.1054 -0.7115
  120WAT    EPW 1188   0.107   1.264   6.513  0.1957 -0.1821 -0.6843
  121WAT      O 1189   1.190   4.995   3.423  0.1281  0.5270  0.5132
  121WAT     H1 1190   1.153   5.029   3.494  1.2675  2.3831  0.2836
  121WAT     H2 1191   1.128   4.943   3.390 -1.3660  1.6588  1.4253
  121WAT    EPW 1192   1.175   4.992   3.429 -0.3668 -0.0462 -0.4442
  122WAT      O 1193   6.685   0.658   0.548 -0.4057  0.2979  0.5570
  122WAT     H1 1194   6.684   0.698   0.625  2.1061 -1.0239  1.3744
  122WAT     H2 1195   6.742   0.593   0.559 -0.4781 -0.3620 -2.2304
  122WAT    EPW 1196   6.693   0.654   0.561  0.1197  0.2120 -0.8253
  123WAT      O 1197   3.950   5.035   2.905 -0.7080 -0.0672  0.0223
  123WAT     H1 1198   4.004   5.068   2.965 -0.2293  0.5668 -0.7418
  123WAT     H2 1199   4.003   5.020   2.836 -1.2559 -0.7202 -0.2734
  123WAT    EPW 1200   3.966   5.037   2.903  0.3025 -0.1270 -0.0511
  124WAT      O 1201   4.475   3.592   7.435  0.0038 -0.4357  0.0534
  124WAT     H1 1202   4.419   3.605   7.369  0.2684  0.6902  0.0296
  124WAT     H2 1203   4.429   3.544   7.492 -0.7720 -0.0624 -0.2450
  124WAT    EPW 1204   4.460   3.587   7.434 -0.6634  0.2775  0.2847
  125WAT      O 1205   3.487   2.021   0.857 -0.8615  0.0657 -0.0631
  125WAT     H1 1206   3.496   2.107   0.845  0.5329  0.0585  0.7946
  125WAT     H2 1207   3.446   2.015   0.934 -0.2718 -0.0333  0.2496
  125WAT    EPW 1208   3.482   2.033   0.866 -0.0346  0.0071 -0.0531
  126WAT      O 1209   4.603   4.843   4.632  0.1410 -0.3691  0.3038
  126WAT     H1 1210   4.637   4.881   4.561  1.8911  0.9659  1.7575
  126WAT     H2 1211   4.625   4.897   4.697 -3.7498 -0.0436  1.6346
  126WAT    EPW 1212   4.611   4.856   4.631  0.1100  0.0442  0.3491
  127WAT      O 1213   5.105   0.408   4.983  0.4712  0.2235  0.5325
  127WAT     H1 1214   5.148   0.398   5.058 -0.8886 -1.1638  1.1800
  127WAT     H2 1215   5.155   0.463   4.937  1.4454  0.9347  2.3582
  127WAT    EPW 1216   5.118   0.415   4.987  0.6682 -0.7098 -0.1519
  128WAT      O 1217   3.893   6.824   2.316  0.6004  0.7022  0.6083
  128WAT     H1 1218   3.886   6.877   2.384  0.6740 -0.7322  1.7895
  128WAT     H2 1219   3.943   6.759   2.345  2.1296  0.8890 -1.3850
  128WAT    EPW 1220   3.899   6.822   2.330 -0.1457 -0.4433  0.3544
  129WAT      O 1221   6.226   1.323   6.377 -0.2876  0.3286  0.2045
  129WAT     H1 1222   6.309   1.298   6.369 -0.4040 -0.1618  0.4789
  129WAT     H2 1223   6.184   1.250   6.400 -1.0118  0.2974 -1.1253
  129WAT    EPW 1224   6.232   1.308   6.379 -0.0757  0.3705  0.2478
  130WAT      O 1225   1.946   1.448   5.900  0.6701  0.0551  0.0496
  130WAT     H1 1226   2.010   1.468   5.845  1.1707 -0.4164  0.4552
  130WAT     H2 1227   1.874   1.464   5.853  1.0689  0.7421 -0.3532
  130WAT    EPW 1228   1.945   1.453   5.885  0.5471  0.2279 -0.0124
  131WAT      O 1229   0.589   2.026   7.336 -0.2808 -0.7231 -0.0461
  131WAT     H1 1230   0.619   2.069   7.267 -0.1779  0.1220  0.5093
  131WAT     H2 1231   0.586   1.943   7.309 -1.3530 -0.2622 -1.4433
  131WAT    EPW 1232   0.593   2.020   7.322  0.3204 -0.4865  0.1481
  132WAT      O 1233   7.131   6.015   2.223 -0.6881  0.4040 -0.6027
  132WAT     H1 1234   7.160   6.031   2.143  0.5387  0.6260 -0.1395
  132WAT     H2 1235   7.106   6.093   2.252 -0.5382  0.4338 -0.5516
  132WAT    EPW 1236   7.131   6.029   2.216  0.7466  0.6143  0.2156
  133WAT      O 1237   3.555   1.111   6.610 -0.4779 -0.3565 -0.2823
  133WAT     H1 1238   3.595   1.187   6.595  0.7485 -0.8003  0.5415
  133WAT     H2 1239   3.492   1.108   6.550  0.5261  0.5360 -1.4250
  133WAT    EPW 1240   3.551   1.122   6.599  0.3420  0.2702 -0.2152
  134WAT      O 1241   7.139   3.611   1.884  0.5139 -0.0627 -0.0536
  134WAT     H1 1242   7.182   3.602   1.959 -1.5216  0.9432  1.3284
  134WAT     H2 1243   7.070   3.558   1.893 -0.9118  1.6599 -0.2411
  134WAT    EPW 1244   7.135   3.602   1.896 -0.2588 -0.1888 -0.0222
  135WAT      O 1245   3.806   4.253   2.426 -0.0237  0.0185 -0.1466
  135WAT     H1 1246   3.839   4.214   2.496  0.2307  0.0585 -0.2428
  135WAT     H2 1247   3.751   4.194   2.393 -0.5785  0.2175  0.4081
  135WAT    EPW 1248   3.803   4.239   2.431  0.3589 -0.2173  0.3275
  136WAT      O 1249   0.140   1.071   1.260 -0.2574  0.2849  0.2789
  136WAT     H1 1250   0.169   1.143   1.299  1.6454  0.0336 -0.5348
  136WAT     H2 1251   0.195   1.009   1.289 -0.7559 -0.4858 -0.3878
  136WAT    EPW 1252   0.153   1.073   1.270 -0.1349  0.2161 -0.1439
  137WAT      O 1253   2.544   7.402   2.645  0.3842 -0.0329 -0.3235
  137WAT     H1 1254   2.472   7.438   2.679  0.3884  0.2597 -0.6124
  137WAT     H2 1255   2.517   7.375   2.566 -0.1171 -2.3622  0.5641
  137WAT    EPW 1256   2.529   7.404   2.638  0.1132  0.1564 -0.2798
  138WAT      O 1257   6.912   2.324   4.727 -0.1492  0.2457 -0.5793
  138WAT     H1 1258   6.877   2.254   4.688 -0.5917  0.3490 -0.3743
  138WAT     H2 1259   6.850   2.349   4.784  0.3084  0.3606 -0.1241
  138WAT    EPW 1260   6.898   2.318   4.730 -0.9135  0.0657  0.1983
  139WAT      O 1261   1.522   5.490   5.034  0.5730 -0.0116 -0.0551
  139WAT     H1 1262   1.504   5.470   4.951 -0.1006 -0.3384  0.1603
  139WAT     H2 1263   1.607   5.469   5.042  0.1742 -1.8209 -0.1445
  139WAT    EPW 1264   1.532   5.484   5.023 -0.2785  0.5027  0.6117
  140WAT      O 1265   1.065   1.072   4.281 -0.2665 -0.6999 -0.2713
  140WAT     H1 1266   1.148   1.090   4.303 -0.5507  1.3087 -0.6875
  140WAT     H2 1267   1.035   1.029   4.350  0.0171  1.9987  1.6931
  140WAT    EPW 1268   1.073   1.068   4.294  0.1356  0.4862 -0.4361
  141WAT      O 1269   3.857   2.068   0.735 -0.5970  0.1589 -0.2156
  141WAT     H1 1270   3.819   2.020   0.673 -0.7100  2.4475 -2.0416
  141WAT     H2 1271   3.941   2.066   0.714 -0.7135  1.4795 -0.8740
  141WAT    EPW 1272   3.864   2.060   0.723  0.4975  0.5764  0.4711
  142WAT      O 1273   2.662   0.896   4.534  0.1570 -0.3853  0.5312
  142WAT     H1 1274   2.577   0.881   4.519  0.8546 -3.0860 -1.4917
  142WAT     H2 1275   2.685   0.950   4.469  0.5436 -2.0830 -0.8127
  142WAT    EPW 1276   2.653   0.902   4.522  0.2384 -0.0917 -0.0157
  143WAT      O 1277   3.014   0.377   3.104 -0.5099 -0.4596 -0.5565
  143WAT     H1 1278   2.992   0.450   3.062 -2.2480 -0.6441 -0.0186
  143WAT     H2 1279   2.938   0.337   3.117  0.2165 -1.4557  0.8386
  143WAT    EPW 1280   3.000   0.382   3.100 -0.4873  0.6173  0.3969
  144WAT      O 1281   6.128   5.531   2.570  0.0035  0.1693  0.0460
  144WAT     H1 1282   6.115   5.617   2.563 -1.9430  0.1239  2.1563
  144WAT     H2 1283   6.215   5.524   2.573  0.2039  2.0552 -0.1744
  144WAT    EPW 1284   6.139   5.543   2.570 -0.0165  0.2628 -0.3466
  145WAT      O 1285   2.495   3.236   5.658 -0.1481 -0.1571 -0.2573
  145WAT     H1 1286   2.466   3.204   5.582  1.5543  1.1894 -1.5769
  145WAT     H2 1287   2.529   3.313   5.635  2.5273 -0.7021  1.4361
  145WAT    EPW 1288   2.496   3.243   5.643  0.1165 -0.1214 -0.1603
  146WAT      O 1289   4.506   3.398   0.549  0.4122 -0.2016 -0.0259
  146WAT     H1 1290   4.495   3.453   0.482 -1.2524 -0.5830 -0.1176
  146WAT     H2 1291   4.503   3.319   0.511  0.2508 -0.4037  0.4043
  146WAT    EPW 1292   4.504   3.394   0.533  0.3823 -0.1823 -0.3879
  147WAT      O 1293   4.328   6.820   5.558 -0.5101 -0.0413 -0.0506
  147WAT     H1 1294   4.296   6.893   5.592 -0.5606 -0.0493 -0.0811
  147WAT     H2 1295   4.406   6.812   5.596 -0.5976 -0.0894  0.1199
  147WAT    EPW 1296   4.335   6.829   5.569 -0.4552  0.3418 -0.0330
  148WAT      O 1297   4.839   3.004   7.095 -0.0545 -0.0065  0.2131
  148WAT     H1 1298   4.922   3.010   7.120 -0.2189 -1.1386  1.1093
  148WAT     H2 1299   4.813   3.087   7.089  1.0929  0.3587  0.0373
  148WAT    EPW 1300   4.847   3.017   7.098  0.2102  0.3916 -0.5766
  149WAT      O 1301   4.102   7.002   6.155  0.1839  0.4561  0.3120
  149WAT     H1 1302   4.035   7.052   6.180  0.6961  1.0626  0.5130
  149WAT     H2 1303   4.164   7.019   6.214  1.0011  0.9920 -0.6599
  149WAT    EPW 1304   4.102   7.012   6.167  0.0503 -0.6425  0.3917
  150WAT      O 1305   3.024   0.298   2.295  0.6375  0.2016  0.4711
  150WAT     H1 1306   2.947   0.259   2.303  0.3753  0.5594 -0.2681
  150WAT     H2 1307   3.037   0.301   2.209  2.3593 -1.5660  0.5938
  150WAT    EPW 1308   3.015   0.292   2.283 -0.8530  0.3019  0.3627
  151WAT      O 1309   3.571   0.164   1.075 -0.6203  0.3904 -0.2395
  151WAT     H1 1310   3.490   0.192   1.059 -1.7210 -0.2541  3.4501
  151WAT     H2 1311   3.605   0.228   1.124 -1.1878 -1.8523  3.4314
  151WAT    EPW 1312   3.564   0.178   1.080 -0.5839 -0.6846  0.3949
  152WAT      O 1313   2.574   1.241   6.296  0.0065 -0.0219  0.5486
  152WAT     H1 1314   2.565   1.323   6.266  1.3924  0.1947  0.6919
  152WAT     H2 1315   2.659   1.234   6.313  0.4061 -2.3014 -1.7510
  152WAT    EPW 1316   2.585   1.252   6.294  0.1065  0.1311  0.2100
  153WAT      O 1317   5.805   1.621   6.013 -0.0902 -0.0721  0.5759
  153WAT     H1 1318   5.787   1.585   5.936 -1.3005  0.9019  0.3662
  153WAT     H2 1319   5.884   1.590   6.033  0.1900 -0.4270 -0.9937
  153WAT    EPW 1320   5.814   1.611   6.005 -0.2555  0.1151 -0.2006
  154WAT      O 1321   7.190   0.434   0.665  0.0971 -0.1734  0.0402
  154WAT     H1 1322   7.217   0.416   0.584  0.2040 -0.5460  0.1533
  154WAT     H2 1323   7.261   0.465   0.704  1.0953 -3.2906  1.0097
  154WAT    EPW 1324   7.204   0.436   0.659  0.5728  0.9871 -0.5356
  155WAT      O 1325   1.307   5.599   5.791  0.6826 -0.0261 -0.1288
  155WAT     H1 1326   1.357   5.575   5.859  1.3425  1.3075 -0.0994
  155WAT     H2 1327   1.265   5.669   5.821 -0.6462 -0.6754 -0.4256
  155WAT    EPW 1328   1.308   5.606   5.805 -0.2922  0.1615 -0.1257
  156WAT      O 1329   4.268   6.068   6.562  0.4170  0.2350  0.1973
  156WAT     H1 1330   4.232   5.989   6.549  1.2441 -0.1600  0.2315
  156WAT     H2 1331   4.225   6.099   6.630 -0.8730  0.4080 -0.6599
  156WAT    EPW 1332   4.256   6.061   6.570 -0.5390  0.1543  0.1877
  157WAT      O 1333   6.984   5.349   7.314  0.1224  0.5439 -0.2947
  157WAT     H1 1334   6.998   5.320   7.232  0.1357  2.9429 -1.2129
  157WAT     H2 1335   6.952   5.429   7.302 -1.1890  0.4460  2.0684
  157WAT    EPW 1336   6.981   5.357   7.300 -0.4790 -0.4931  0.5871
  158WAT      O 1337   3.327   2.448   6.527  0.3253 -0.4789 -0.8504
  158WAT     H1 1338   3.374   2.522   6.522 -0.6345  0.4400  1.8636
  158WAT     H2 1339   3.265   2.468   6.585  0.0514 -3.4585  0.0002
  158WAT    EPW 1340   3.325   2.462   6.535 -0.3313  0.2381  0.3675
  159WAT      O 1341   4.414   5.720   0.071 -0.3126  0.1876  0.0015
  159WAT     H1 1342   4.329   5.712   0.052 -0.5049  0.7584  0.5810
  159WAT     H2 1343   4.426   5.806   0.076  0.1114  0.0983  0.7035
  159WAT    EPW 1344   4.403   5.732   0.069 -0.1969 -0.1391  0.1645
  160WAT      O 1345   2.129   0.140   3.909  0.2573  0.1422  0.2015
  160WAT     H1 1346   2.180   0.209   3.927 -0.0083  0.8582 -1.4888
  160WAT     H2 1347   2.157   0.078   3.963  2.5630  0.6731 -0.2584
  160WAT    EPW 1348   2.141   0.141   3.919 -0.1600  0.4156 -0.0664
  161WAT      O 1349   5.845   2.123   0.039 -0.1254 -0.0508 -0.7948
  161WAT     H1 1350   5.860   2.038   0.024  0.4181 -0.4648  1.7683
  161WAT     H2 1351   5.760   2.125   0.058  0.1321 -0.2568  0.4360
  161WAT    EPW 1352   5.835   2.111   0.039  0.8089  0.5943  0.2187
  162WAT      O 1353   7.355   5.684   0.594  0.3008  0.2635  0.0210
  162WAT     H1 1354   7.365   5.616   0.540 -2.4415 -0.1003 -0.1957
  162WAT     H2 1355   7.434   5.719   0.599  1.7102 -2.6251 -0.2810
  162WAT    EPW 1356   7.368   5.679   0.587 -0.1607 -0.4198  0.3740
  163WAT      O 1357   6.126   0.331   6.603  0.0700  0.2077 -0.3097
  163WAT     H1 1358   6.061   0.331   6.544  0.6790 -0.2198 -0.9915
  163WAT     H2 1359   6.169   0.257   6.586  0.2105  0.0426  0.7286
  163WAT    EPW 1360   6.123   0.320   6.591  0.6464 -0.1752 -0.6115
  164WAT      O 1361   4.879   7.141   0.671  0.6608 -0.5039 -0.6172
  164WAT     H1 1362   4.934   7.204   0.645 -0.6675  1.4498  0.9302
  164WAT     H2 1363   4.925   7.096   0.729  1.5844 -0.8489 -1.6076
  164WAT    EPW 1364   4.894   7.144   0.676  0.3017 -0.7153  0.0047
  165WAT      O 1365   3.610   0.490   6.064 -0.0482  0.3827  0.6151
  165WAT     H1 1366   3.587   0.469   6.146 -0.0728  2.5507  1.2186
  165WAT     H2 1367   3.575   0.426   6.016 -2.7350  0.6406  2.0076
  165WAT    EPW 1368   3.601   0.477   6.069  0.6849 -0.5963 -0.5315
  166WAT      O 1369   5.842   2.620   0.104 -0.2309 -0.1029  0.5317
  166WAT     H1 1370   5.899   2.609   0.169  2.3695 -2.0876 -1.8242
  166WAT     H2 1371   5.820   2.704   0.110 -0.8443 -0.3506  4.3512
  166WAT    EPW 1372   5.847   2.631   0.114 -0.6590 -0.5898 -0.1286
  167WAT      O 1373   6.644   4.896   7.444  0.4056  0.0464  0.6200
  167WAT     H1 1374   6.594   4.939   7.387 -1.7404 -0.7515  1.8148
  167WAT     H2 1375   6.698   4.958   7.474 -0.1129  1.0331 -0.3863
  167WAT    EPW 1376   6.645   4.912   7.440  0.1835 -0.7152 -0.1491
  168WAT      O 1377   5.399   4.152   3.378 -0.1189 -0.3186  0.5970
  168WAT     H1 1378   5.472   4.128   3.420  0.5122 -1.7192 -1.2083
  168WAT     H2 1379   5.426   4.165   3.296 -1.6064  0.8181  0.2575
  168WAT    EPW 1380   5.414   4.150   3.372  0.3457  0.0159  0.1422
  169WAT      O 1381   4.171   6.580   1.655 -0.4022  0.4210 -0.3337
  169WAT     H1 1382   4.188   6.590   1.570 -1.7238  0.5777 -0.6095
  169WAT     H2 1383   4.084   6.573   1.658 -0.9849  4.9316  1.3405
  169WAT    EPW 1384   4.161   6.581   1.643 -0.5259  0.2232  0.5886
  170WAT      O 1385   7.104   5.018   5.447  0.1416 -0.0578 -0.7090
  170WAT     H1 1386   7.130   5.006   5.364 -0.1024 -0.8260 -0.6796
  170WAT     H2 1387   7.065   4.943   5.467  1.3670 -0.4008  0.5533
  170WAT    EPW 1388   7.102   5.005   5.438  0.0967 -0.5018 -0.2009
  171WAT      O 1389   7.262   6.911   4.778  0.2992 -0.1559  0.2229
  171WAT     H1 1390   7.265   6.837   4.731  0.9827  0.5816 -0.9465
  171WAT     H2 1391   7.238   6.884   4.857  0.6474 -1.6512 -0.1480
  171WAT    EPW 1392   7.259   6.896   4.783  0.1074  0.4950 -0.1589
  172WAT      O 1393   3.222   1.525   4.020  0.1057  0.3044  0.0491
  172WAT     H1 1394   3.213   1.506   3.935 -2.3696  0.1496  0.2689
  172WAT     H2 1395   3.198   1.608   4.025 -0.7953  0.0232  0.7025
  172WAT    EPW 1396   3.217   1.534   4.008  0.3897 -0.1584 -0.1841
  173WAT      O 1397   2.902   6.982   2.580 -0.4167  0.2336 -0.0527
  173WAT     H1 1398   2.824   7.017   2.594 -0.4893 -0.0944  0.4130
  173WAT     H2 1399   2.910   6.924   2.646 -0.0557 -0.1861 -0.4583
  173WAT    EPW 1400   2.892   6.978   2.592 -0.5236 -0.8095 -0.0547
  174WAT      O 1401   2.816   5.709   2.515  0.2356 -0.0315  0.0414
  174WAT     H1 1402   2.740   5.742   2.540  0.7386 -0.0615  1.7098
  174WAT     H2 1403   2.874   5.769   2.540  0.8475 -0.5054 -0.2027
  174WAT    EPW 1404   2.814   5.723   2.522  0.5121  0.0190  0.0621
  175WAT      O 1405   0.582   1.414   0.734  0.3710 -0.7248 -0.2246
  175WAT     H1 1406   0.525   1.350   0.751 -0.6695  0.2277 -0.0297
  175WAT     H2 1407   0.532   1.482   0.716  1.4544  0.1609 -0.0257
  175WAT    EPW 1408   0.566   1.415   0.734  0.0665  0.4651  0.2524
  176WAT      O 1409   4.575   4.753   2.728  0.4136 -0.0046 -0.0156
  176WAT     H1 1410   4.494   4.783   2.746  0.7790  1.2524 -0.3441
  176WAT     H2 1411   4.596   4.707   2.799 -0.5365 -0.2231  0.1373
  176WAT    EPW 1412   4.566   4.751   2.741  0.1646 -0.1528  0.6530
  177WAT      O 1413   0.736   3.300   6.302  0.1001  0.6479  0.5729
  177WAT     H1 1414   0.725   3.220   6.268 -0.5611  1.0484 -0.1955
  177WAT     H2 1415   0.812   3.326   6.269  0.3181  0.3326  0.8259
  177WAT    EPW 1416   0.746   3.292   6.292 -0.0807  0.2685 -0.9836
  178WAT      O 1417   2.855   1.250   6.013 -0.0732  0.0884  0.3643
  178WAT     H1 1418   2.923   1.258   5.959 -1.7857  1.3560 -1.7526
  178WAT     H2 1419   2.854   1.165   6.033  1.9276  0.0022  0.2167
  178WAT    EPW 1420   2.865   1.238   6.008  0.2585  0.4792  0.0720
  179WAT      O 1421   5.368   1.759   6.543  0.0709  0.3760  0.3085
  179WAT     H1 1422   5.350   1.700   6.604  0.5061  0.7487  0.8001
  179WAT     H2 1423   5.449   1.739   6.518 -0.6972 -0.8695 -1.4119
  179WAT    EPW 1424   5.377   1.748   6.548  0.2815 -0.5000  0.7916
  180WAT      O 1425   4.073   7.503   1.568 -0.3870 -0.3449 -0.4753
  180WAT     H1 1426   4.112   7.438   1.612  0.3939  0.2828 -0.2117
  180WAT     H2 1427   3.989   7.480   1.567 -0.4968 -0.2082  1.6588
  180WAT    EPW 1428   4.067   7.490   1.575  0.5665  0.2030  0.6321
  181WAT      O 1429   4.412   6.501   4.231  0.2143 -0.5970 -0.1372
  181WAT     H1 1430   4.429   6.550   4.301  0.4178  2.2535 -2.0133
  181WAT     H2 1431   4.325   6.490   4.235 -0.0518  1.0885 -0.2913
  181WAT    EPW 1432   4.402   6.507   4.242  0.0876 -0.2045 -0.3580
  182WAT      O 1433   0.555   1.958   1.343  0.0945 -0.8266  0.0485
  182WAT     H1 1434   0.472   1.982   1.333  0.4790  0.1643 -1.0391
  182WAT     H2 1435   0.594   2.029   1.376  0.4871 -1.3385  0.7177
  182WAT    EPW 1436   0.549   1.972   1.346  0.5877 -0.5140 -0.0465
  183WAT      O 1437   6.382   6.485   7.434  0.0317 -0.0952  0.3259
  183WAT     H1 1438   6.424   6.560   7.452 -0.2148 -0.5557  3.3523
  183WAT     H2 1439   6.424   6.454   7.364  2.2078  1.3594  0.8845
  183WAT    EPW 1440   6.395   6.492   7.426  0.0800  0.0167  0.0524
  184WAT      O 1441   7.031   1.440   0.295  0.7037  0.1481  0.5713
  184WAT     H1 1442   7.043   1.354   0.293  1.0427  0.1956 -0.4133
  184WAT     H2 1443   7.094   1.470   0.242  1.5975  1.1334  2.1305
  184WAT    EPW 1444   7.042   1.432   0.287  0.0732 -0.6123 -0.0838
  185WAT      O 1445   0.570   5.837   2.022 -0.0842 -0.0166  1.4686
  185WAT     H1 1446   0.559   5.783   1.954  0.5653  1.7228 -0.1128
  185WAT     H2 1447   0.634   5.800   2.067  0.0304 -0.8041  0.6942
  185WAT    EPW 1448   0.578   5.823   2.018  0.6011  0.1746 -0.9526
  186WAT      O 1449   1.143   3.070   1.847  0.3135 -0.0250 -0.2172
  186WAT     H1 1450   1.194   3.072   1.917  0.5431 -3.2505 -0.1534
  186WAT     H2 1451   1.074   3.118   1.870  1.7452  1.5559  0.9773
  186WAT    EPW 1452   1.140   3.078   1.860  0.4028  0.2016 -0.3841
  187WAT      O 1453   1.757   6.580   1.484 -0.1036  0.1396 -0.0711
  187WAT     H1 1454   1.689   6.525   1.478 -1.9958  2.4114 -0.4609
  187WAT     H2 1455   1.765   6.613   1.404 -0.4362  1.9946  0.6108
  187WAT    EPW 1456   1.748   6.576   1.471  0.0552 -0.4636  0.2572
  188WAT      O 1457   5.509   4.237   4.490 -0.4186  0.0380 -0.2616
  188WAT     H1 1458   5.486   4.263   4.410  1.1817  0.4583 -0.6296
  188WAT     H2 1459   5.464   4.291   4.543 -0.9828  0.1972 -0.8979
  188WAT    EPW 1460   5.499   4.249   4.486 -0.8584 -0.0611  0.2325
  189WAT      O 1461   1.583   3.881   3.679 -0.2340 -0.6155 -0.0903
  189WAT     H1 1462   1.539   3.835   3.738  1.0915 -2.1117 -0.2073
  189WAT     H2 1463   1.575   3.963   3.708 -2.9820 -0.7893 -0.0858
  189WAT    EPW 1464   1.575   3.887   3.692  0.2055  0.0775 -0.2024
  190WAT      O 1465   4.056   3.930   1.654 -0.1104  0.0898  0.4137
  190WAT     H1 1466   4.065   3.976   1.727 -0.6642 -0.4259  0.8188
  190WAT     H2 1467   4.085   3.851   1.676 -0.5199 -0.1371  0.1504
  190WAT    EPW 1468   4.062   3.925   1.668 -0.2240  0.1881  0.6057
  191WAT      O 1469   7.071   6.589   4.117 -0.1108  0.0243 -0.7879
  191WAT     H1 1470   7.049   6.660   4.070  0.4586  1.6567  1.2674
  191WAT     H2 1471   6.999   6.572   4.163  0.1083 -0.0786 -0.4831
  191WAT    EPW 1472   7.057   6.597   4.117  0.1063 -0.9813  0.1243
  192WAT      O 1473   3.688   7.208   0.553 -0.3261 -0.4539  0.0023
  192WAT     H1 1474   3.629   7.181   0.611 -0.4665  0.9658  0.5571
  192WAT     H2 1475   3.647   7.200   0.476 -0.5805 -1.1755  0.2093
  192WAT    EPW 1476   3.673   7.203   0.550 -0.9246 -0.4341  0.3437
  193WAT      O 1477   3.833   5.722   1.440 -0.3353 -0.0322  0.2343
  193WAT     H1 1478   3.825   5.642   1.474 -2.9037  0.2743  0.5610
  193WAT     H2 1479   3.806   5.775   1.504 -0.2151  0.9653 -0.5027
  193WAT    EPW 1480   3.827   5.718   1.454  0.1104  0.2699 -0.3903
  194WAT      O 1481   3.585   3.761   1.586  0.2400 -0.3226  0.7194
  194WAT     H1 1482   3.573   3.793   1.506  2.1190  0.8702  0.8836
  194WAT     H2 1483   3.655   3.709   1.577  0.8625  0.3234  1.7007
  194WAT    EPW 1484   3.593   3.758   1.573  0.0177  0.2492 -0.2857
  195WAT      O 1485   1.955   5.611   1.042  0.4219 -0.2773 -0.0299
  195WAT     H1 1486   1.889   5.588   0.991  0.7455  0.5182 -0.8194
  195WAT     H2 1487   1.925   5.682   1.083  1.2357  0.9089 -1.3994
  195WAT    EPW 1488   1.941   5.618   1.041 -0.0945 -0.2874 -0.2252
  196WAT      O 1489   7.002   6.031   1.802  0.6742 -0.4592 -0.0608
  196WAT     H1 1490   6.985   6.086   1.736  1.4021 -0.5868 -0.3578
  196WAT     H2 1491   7.062   5.977   1.769 -1.1614 -2.4870 -0.3420
  196WAT    EPW 1492   7.008   6.031   1.787 -0.0548 -0.7046 -0.7725
  197WAT      O 1493   3.787   3.676   1.773 -0.2114  0.0728  0.7489
  197WAT     H1 1494   3.759   3.738   1.828  1.7919  1.4941  0.2954
  197WAT     H2 1495   3.765   3.602   1.813 -1.7560  1.0645  1.8438
  197WAT    EPW 1496   3.780   3.674   1.787  0.5481  0.7631 -0.0366
  198WAT      O 1497   6.582   1.165   6.969  0.5283  0.1000 -0.1860
  198WAT     H1 1498   6.660   1.174   7.005  0.3733  0.3501  0.0887
  198WAT     H2 1499   6.587   1.088   6.927  0.3203 -0.7913  1.3680
  198WAT    EPW 1500   6.594   1.155   6.968 -0.4332  0.2240  0.2020
  199WAT      O 1501   4.235   3.540   5.843  0.3395 -0.4542  0.2270
  199WAT     H1 1502   4.231   3.530   5.929  1.0348  0.8193  0.4185
  199WAT     H2 1503   4.152   3.549   5.819  0.2519  0.7494  0.9661
  199WAT    EPW 1504   4.222   3.540   5.852 -0.8519 -0.7185  0.1772
  200WAT      O 1505   1.688   1.285   4.086  0.6891  0.7711  0.1241
  200WAT     H1 1506   1.740   1.346   4.120  0.6838 -0.0309  1.6996
  200WAT     H2 1507   1.612   1.299   4.125  0.3658  0.4878 -0.3922
  200WAT    EPW 1508   1.685   1.296   4.097 -0.1027  0.0257 -0.6888
  201WAT      O 1509   5.157   5.121   0.380 -0.0775 -0.3691 -0.2749
  201WAT     H1 1510   5.108   5.080   0.320  0.3875  0.5497 -1.3062
  201WAT     H2 1511   5.152   5.205   0.356 -0.1399  0.0558  1.1766
  201WAT    EPW 1512   5.149   5.127   0.367 -0.1197 -0.3157  0.2772
  202WAT      O 1513   6.416   2.826   4.529 -0.3885  0.4682  0.8675
  202WAT     H1 1514   6.409   2.807   4.614 -0.6568  1.8884  1.2004
  202WAT     H2 1515   6.501   2.845   4.520 -0.4584  0.8302  0.9477
  202WAT    EPW 1516   6.427   2.826   4.540  0.3197  0.0042 -0.0999
  203WAT      O 1517   3.248   3.375   5.510 -0.4647 -0.3307 -0.0535
  203WAT     H1 1518   3.297   3.319   5.464 -2.8871 -1.9103 -0.9258
  203WAT     H2 1519   3.261   3.350   5.593 -1.4479 -2.2551 -0.4117
  203WAT    EPW 1520   3.257   3.363   5.515  0.1773  0.1269  0.2918
  204WAT      O 1521   0.999   2.283   2.600  0.0183 -0.0732  0.3940
  204WAT     H1 1522   1.047   2.343   2.558  0.7418 -0.7043  0.2893
  204WAT     H2 1523   0.930   2.328   2.627  1.1002  1.1040  1.3658
  204WAT    EPW 1524   0.996   2.298   2.598 -0.3574 -0.3470 -0.6715
  205WAT      O 1525   2.276   1.061   1.349  0.1037  0.0076  0.1645
  205WAT     H1 1526   2.268   1.145   1.325  2.0784  0.2292  0.1852
  205WAT     H2 1527   2.253   1.017   1.277  0.9206  0.5982 -0.4612
  205WAT    EPW 1528   2.271   1.067   1.335 -0.2787  0.1389 -0.1599
  206WAT      O 1529   1.779   1.129   7.163 -0.4931  0.4957 -0.3501
  206WAT     H1 1530   1.700   1.159   7.143 -0.6172 -0.0093 -0.6287
  206WAT     H2 1531   1.784   1.053   7.120  1.0328  1.5871 -2.2370
  206WAT    EPW 1532   1.768   1.122   7.154 -0.5471 -0.0263  0.9038
  207WAT      O 1533   2.253   0.011   2.091  0.0384  0.9049  0.2528
  207WAT     H1 1534   2.172   0.033   2.116  0.2570  1.6600  0.3067
  207WAT     H2 1535   2.239  -0.044   2.025 -0.5378 -0.2398  1.2671
  207WAT    EPW 1536   2.239   0.006   2.085 -0.0522  0.2592  0.3993
  208WAT      O 1537   6.792   1.868   6.540  0.2826 -0.1340  0.1947
  208WAT     H1 1538   6.820   1.860   6.457  0.5230 -1.4130  0.3832
  208WAT     H2 1539   6.828   1.943   6.566  2.4832 -1.0449 -0.0028
  208WAT    EPW 1540   6.801   1.878   6.531 -0.0132  0.0722  0.0633
  209WAT      O 1541   2.462   5.931   4.830 -0.2071 -0.5073 -0.1712
  209WAT     H1 1542   2.439   5.879   4.897 -1.3888 -0.0145 -0.1797
  209WAT     H2 1543   2.387   5.968   4.806  0.6008  1.2164 -0.1673
  209WAT    EPW 1544   2.448   5.929   4.836  0.2927 -0.2026  0.6800
  210WAT      O 1545   5.793   0.990   0.027 -0.0946 -0.1046  0.9259
  210WAT     H1 1546   5.809   0.908   0.002 -1.2867  0.0263 -0.4707
  210WAT     H2 1547   5.706   0.992   0.035 -0.2958  1.4431 -0.8591
  210WAT    EPW 1548   5.782   0.979   0.025 -0.1418 -0.3015 -0.2856
  211WAT      O 1549   2.588   4.276   0.822 -0.3920 -0.4275  0.0294
  211WAT     H1 1550   2.532   4.227   0.867 -0.5602 -1.0485 -0.8312
  211WAT     H2 1551   2.628   4.323   0.884  0.7314 -2.5835  1.0793
  211WAT    EPW 1552   2.586   4.276   0.838  0.3526  0.0669  0.0989
  212WAT      O 1553   4.798   1.315   4.063 -0.0038 -0.1927 -0.6907
  212WAT     H1 1554   4.881   1.287   4.061 -0.1915 -0.8200 -0.0044
  212WAT     H2 1555   4.800   1.378   4.124  0.5675  1.8938 -2.6994
  212WAT    EPW 1556   4.811   1.320   4.072 -0.4884  0.6439  0.9509
  213WAT      O 1557   1.342   3.648   1.950 -0.1046 -0.2643  0.2368
  213WAT     H1 1558   1.334   3.690   1.874  1.2945  1.0779  0.7651
  213WAT     H2 1559   1.322   3.565   1.931 -0.6399  0.2077 -1.3794
  213WAT    EPW 1560   1.338   3.642   1.936 -0.1004  0.2522 -0.0428
  214WAT      O 1561   7.354   2.814   5.417  0.4769  0.1184 -0.0142
  214WAT     H1 1562   7.310   2.879   5.378  0.5014 -0.4667 -1.0180
  214WAT     H2 1563   7.302   2.745   5.407  0.0917  0.0901  1.7097
  214WAT    EPW 1564   7.339   2.814   5.410  0.0764  0.3880  0.0956
  215WAT      O 1565   3.500   1.108   3.425  0.2468  0.1096  0.0943
  215WAT     H1 1566   3.422   1.075   3.407 -0.1409  0.1080  1.6388
  215WAT     H2 1567   3.501   1.113   3.512  1.6161  0.9629  0.0652
  215WAT    EPW 1568   3.489   1.104   3.435 -0.0660  0.1667 -0.1828
  216WAT      O 1569   4.472   5.653   4.926 -0.2426 -0.4852 -0.4653
  216WAT     H1 1570   4.549   5.649   4.885 -0.1795 -1.2892 -0.2794
  216WAT     H2 1571   4.477   5.591   4.986 -0.8467 -0.2023 -0.1057
  216WAT    EPW 1572   4.484   5.643   4.929 -0.1891  0.4012  0.3622
  217WAT      O 1573   5.762   2.416   1.599  0.2104  0.2370 -0.8176
  217WAT     H1 1574   5.725   2.342   1.627 -0.2820 -0.4746 -3.0591
  217WAT     H2 1575   5.800   2.392   1.524  1.0481  2.0199 -1.0186
  217WAT    EPW 1576   5.762   2.401   1.592  0.2214 -0.1461 -0.0657
  218WAT      O 1577   6.148   4.468   3.731  0.3238 -0.0027 -0.0574
  218WAT     H1 1578   6.224   4.426   3.729 -0.3547 -1.2434 -0.8734
  218WAT     H2 1579   6.170   4.550   3.751  1.8562 -0.3737 -0.1504
  218WAT    EPW 1580   6.162   4.474   3.733 -0.2796  0.2611 -0.9091
  219WAT      O 1581   1.953   3.212   0.344  0.6274 -0.1681  0.2504
  219WAT     H1 1582   1.884   3.264   0.357 -0.6748 -1.8661  0.4621
  219WAT     H2 1583   2.018   3.256   0.382 -0.2576  1.5882 -0.1327
  219WAT    EPW 1584   1.952   3.226   0.352 -0.1593  0.0352  0.3406
  220WAT      O 1585   0.746   3.688   5.971 -0.1008  0.1798  0.0091
  220WAT     H1 1586   0.736   3.626   5.911 -2.9757  1.3956 -0.9571
  220WAT     H2 1587   0.702   3.657   6.040  1.0927 -0.1385  0.6546
  220WAT    EPW 1588   0.738   3.674   5.973 -0.2918 -0.1574 -0.6962
  221WAT      O 1589   1.474   3.413   3.855  0.0475 -0.2632  0.3856
  221WAT     H1 1590   1.449   3.380   3.779 -0.5870 -0.0767  0.5129
  221WAT     H2 1591   1.557   3.386   3.863  0.0883 -0.3583 -0.3238
  221WAT    EPW 1592   1.483   3.404   3.845 -0.7185  0.0959  0.1811
  222WAT      O 1593   5.105   2.926   1.132 -0.3553  0.2142  0.1312
  222WAT     H1 1594   5.115   2.840   1.132 -0.3665  0.2078  0.7353
  222WAT     H2 1595   5.068   2.943   1.055 -1.6979 -0.4857  0.5955
  222WAT    EPW 1596   5.101   2.916   1.121 -0.0891  0.5665  0.3046
  223WAT      O 1597   4.143   1.996   7.286 -0.0129 -0.1808 -0.3788
  223WAT     H1 1598   4.164   1.962   7.208 -0.8337  2.2777 -1.7866
  223WAT     H2 1599   4.068   1.957   7.306  0.0598 -0.6331 -0.9562
  223WAT    EPW 1600   4.135   1.986   7.278 -0.4749 -0.1237 -0.1830
  224WAT      O 1601   0.232   0.338   4.719  0.2932  0.3618  0.0985
  224WAT     H1 1602   0.282   0.409   4.716  0.3569  0.3435  0.6075
  224WAT     H2 1603   0.247   0.299   4.643  0.6975  0.5988  0.0551
  224WAT    EPW 1604   0.241   0.342   4.707  0.1263  0.6233  0.3382
  225WAT      O 1605   5.043   5.484   4.092  0.1774  0.8196  0.0281
  225WAT     H1 1606   5.124   5.516   4.105  1.2868 -1.6019 -0.4295
  225WAT     H2 1607   5.057   5.401   4.070 -2.4486  0.4545 -0.5827
  225WAT    EPW 1608   5.057   5.477   4.090 -0.1051  0.2364  0.2259
  226WAT      O 1609   4.500   3.929   2.800 -0.2524 -0.0711  0.2023
  226WAT     H1 1610   4.506   3.942   2.887 -0.3744  0.2283  0.1689
  226WAT     H2 1611   4.517   3.844   2.791  3.3581  0.4767  0.1842
  226WAT    EPW 1612   4.504   3.918   2.812 -0.7134  0.2127  0.7420
  227WAT      O 1613   1.875   3.273   5.498  0.3154  0.0358 -0.1880
  227WAT     H1 1614   1.876   3.360   5.499 -0.6750  0.0553  0.3716
  227WAT     H2 1615   1.854   3.252   5.580  0.0121 -0.7147 -0.4496
  227WAT    EPW 1616   1.872   3.283   5.510  0.0899  0.2966  0.4831
  228WAT      O 1617   6.230   4.552   1.025 -0.7489  0.1895  0.1264
  228WAT     H1 1618   6.267   4.613   1.075 -1.9436 -0.2070  1.5408
  228WAT     H2 1619   6.295   4.525   0.974  0.5249  0.5796  1.4879
  228WAT    EPW 1620   6.245   4.557   1.025 -0.5727 -0.0508  0.0385
  229WAT      O 1621   7.425   1.430   5.041  0.3698 -0.7401 -0.3169
  229WAT     H1 1622   7.429   1.452   5.125  0.4420  3.8693 -1.2614
  229WAT     H2 1623   7.509   1.421   5.018  0.4965  0.2767 -0.3039
  229WAT    EPW 1624   7.438   1.432   5.050 -0.4124 -0.0266 -0.6621
  230WAT      O 1625   1.842   5.559   4.201  0.3861 -0.1049  0.0813
  230WAT     H1 1626   1.859   5.504   4.135 -2.6705 -1.0729 -0.0958
  230WAT     H2 1627   1.794   5.622   4.162 -0.2758  0.0485  1.1029
  230WAT    EPW 1628   1.837   5.560   4.185  0.6384  0.3404 -0.0833
  231WAT      O 1629   6.020   2.653   7.512  0.1665 -0.3081 -0.3564
  231WAT     H1 1630   5.960   2.640   7.574  0.5572 -1.1516 -0.1447
  231WAT     H2 1631   6.069   2.581   7.515  0.2754 -0.3077 -1.5565
  231WAT    EPW 1632   6.019   2.640   7.521  0.0552  0.2356  0.8501
  232WAT      O 1633   5.430   0.142   7.374  0.1889  0.2596  0.2134
  232WAT     H1 1634   5.416   0.149   7.459  0.0930  0.2074  0.2009
  232WAT     H2 1635   5.402   0.061   7.354  2.4529 -0.6999  0.5956
  232WAT    EPW 1636   5.424   0.131   7.383 -0.2436 -0.0909  0.0412
  233WAT      O 1637   1.719   3.339   2.623 -0.3635 -0.0341 -0.5747
  233WAT     H1 1638   1.720   3.323   2.537  0.4349 -1.3302 -0.3548
  233WAT     H2 1639   1.721   3.426   2.628  1.2083  0.0510 -1.8667
  233WAT    EPW 1640   1.719   3.350   2.611 -0.0515  0.0120 -0.3354
  234WAT      O 1641   4.295   3.298   0.272  0.4755  0.0365 -0.2152
  234WAT     H1 1642   4.331   3.251   0.336 -0.2509  0.9037  0.8699
  234WAT     H2 1643   4.242   3.241   0.232  1.4179 -0.6797 -0.4639
  234WAT    EPW 1644   4.292   3.283   0.276  0.5117  0.1120  0.1739
  235WAT      O 1645   1.157   1.298   2.162  0.3169 -0.0279  0.1874
  235WAT     H1 1646   1.215   1.361   2.146 -1.3474  1.2575 -1.1396
  235WAT     H2 1647   1.185   1.231   2.114  0.8118  0.4905 -0.2516
  235WAT    EPW 1648   1.170   1.297   2.153 -0.0948 -0.0427 -0.0488
  236WAT      O 1649   5.521   4.055   2.525  0.1728  0.2542 -0.0597
  236WAT     H1 1650   5.600   4.076   2.496  0.3475  0.5164  0.5966
  236WAT     H2 1651   5.500   3.985   2.477  0.7185  0.2931 -0.3670
  236WAT    EPW 1652   5.529   4.048   2.513  0.1684 -0.0196 -0.3605
  237WAT      O 1653   6.932   3.919   5.985 -0.2928  0.2725  0.6508
  237WAT     H1 1654   6.907   3.961   5.913 -0.6562 -1.7046 -0.4667
  237WAT     H2 1655   7.011   3.887   5.964 -0.6488 -0.7989  0.8829
  237WAT    EPW 1656   6.940   3.920   5.971  0.3333 -0.3658 -0.0762
  238WAT      O 1657   7.316   6.254   7.585 -0.3576  0.4972 -1.0160
  238WAT     H1 1658   7.323   6.295   7.662  2.3394 -2.8649  0.7965
  238WAT     H2 1659   7.366   6.302   7.531 -2.2176  2.8485 -0.8168
  238WAT    EPW 1660   7.325   6.267   7.588  1.1236  0.1068  0.2787
  239WAT      O 1661   0.961   1.739   2.471 -0.3413  0.0177  0.0069
  239WAT     H1 1662   0.938   1.714   2.551  3.3926 -0.9040  0.9902
  239WAT     H2 1663   0.938   1.823   2.468  0.1851  0.3146  2.4167
  239WAT    EPW 1664   0.954   1.748   2.482 -0.1528  0.5719 -0.0301
  240WAT      O 1665   2.823   0.838   1.439 -0.0386 -0.1561  0.2402
  240WAT     H1 1666   2.831   0.860   1.523  1.3723  0.6263 -0.0631
  240WAT     H2 1667   2.857   0.757   1.435  1.3700  0.4118  0.1866
  240WAT    EPW 1668   2.829   0.829   1.450  0.0016 -0.1577 -0.1680
  241WAT      O 1669   2.722   4.342   4.620  0.5628  0.9063  0.4263
  241WAT     H1 1670   2.678   4.273   4.651  0.0528  0.8006 -0.4823
  241WAT     H2 1671   2.763   4.373   4.690  2.6471 -1.6489  0.5067
  241WAT    EPW 1672   2.721   4.336   4.635 -0.1363  0.0608  0.3262
  242WAT      O 1673   5.475   5.618   6.192 -0.4245  0.1464 -0.1801
  242WAT     H1 1674   5.439   5.656   6.122 -0.1071 -0.8814 -0.9148
  242WAT     H2 1675   5.530   5.679   6.222  2.0393 -0.5618 -2.8559
  242WAT    EPW 1676   5.478   5.633   6.186 -0.6562  0.3995 -0.6466
  243WAT      O 1677   6.590   5.508   0.468 -0.0326 -0.1824 -0.0971
  243WAT     H1 1678   6.543   5.452   0.420  1.3007 -1.4892  0.0384
  243WAT     H2 1679   6.578   5.479   0.549  0.7035 -0.3155 -0.0290
  243WAT    EPW 1680   6.581   5.495   0.473  0.2166  0.7836 -0.6555
  244WAT      O 1681   1.094   5.569   0.462  0.1913 -0.3041 -0.0773
  244WAT     H1 1682   1.146   5.578   0.532  1.3904 -1.4433 -0.7618
  244WAT     H2 1683   1.123   5.495   0.426 -1.9921 -1.0227 -0.4571
  244WAT    EPW 1684   1.106   5.559   0.467  0.3221 -0.3884  0.5611
  245WAT      O 1685   2.800   2.344   6.052  0.1888  0.1453  0.2040
  245WAT     H1 1686   2.815   2.356   5.967 -3.6475  0.5146 -0.6119
  245WAT     H2 1687   2.873   2.306   6.081  1.0048 -1.6393 -3.6210
  245WAT    EPW 1688   2.813   2.340   6.044  0.6339 -0.3358 -0.3399
  246WAT      O 1689   4.179   4.564   6.769 -0.2087 -0.6523  0.4462
  246WAT     H1 1690   4.250   4.514   6.768 -0.3976 -0.9205  0.2004
  246WAT     H2 1691   4.176   4.593   6.851  0.0187 -0.8820  0.5385
  246WAT    EPW 1692   4.189   4.561   6.781 -0.5442  0.2369  0.2347
  247WAT      O 1693   1.150   4.345   5.487  0.8332  0.4314  0.1622
  247WAT     H1 1694   1.088   4.381   5.436  0.2808 -0.4040  0.2151
  247WAT     H2 1695   1.223   4.384   5.461 -0.0207  3.7504  2.1650
  247WAT    EPW 1696   1.152   4.356   5.475 -0.2096  0.7407  0.1611
  248WAT      O 1697   0.118   0.228   0.212  0.4289 -0.2875  0.6006
  248WAT     H1 1698   0.129   0.248   0.296 -1.0535  1.0649  0.5098
  248WAT     H2 1699   0.160   0.291   0.169  1.0329 -0.8774  0.2931
  248WAT    EPW 1700   0.126   0.240   0.218 -0.0159  0.1901  0.1228
  249WAT      O 1701   5.727   7.301   5.746 -0.2051  0.4563 -0.1338
  249WAT     H1 1702   5.701   7.299   5.830  0.3642  0.6420  0.0578
  249WAT     H2 1703   5.712   7.220   5.718 -1.6712  0.7492 -0.2611
  249WAT    EPW 1704   5.721   7.289   5.754  0.4025 -0.0714 -0.6271
  250WAT      O 1705   2.486   5.404   3.113  0.2637  0.3637 -0.5019
  250WAT     H1 1706   2.482   5.450   3.187 -0.5639  2.5137 -1.7821
  250WAT     H2 1707   2.569   5.411   3.088  0.3618  0.3200 -0.1909
  250WAT    EPW 1708   2.497   5.412   3.120 -0.2380  0.3170  0.3012
  251WAT      O 1709   4.120   7.366   0.233  0.3215  0.1001 -0.2306
  251WAT     H1 1710   4.103   7.436   0.283  1.1704 -0.9358  1.6197
  251WAT     H2 1711   4.196   7.386   0.195 -1.5149  1.9728 -3.3082
  251WAT    EPW 1712   4.129   7.380   0.235 -0.0388 -0.3601 -0.3207
  252WAT      O 1713   0.292   5.099   7.216 -0.1836  0.1415 -0.1290
  252WAT     H1 1714   0.228   5.105   7.158  0.1385 -2.1560 -0.8069
  252WAT     H2 1715   0.364   5.103   7.167  0.0954 -3.4289 -0.2360
  252WAT    EPW 1716   0.293   5.101   7.200  0.3742 -0.4641 -0.2332
  253WAT      O 1717   7.566   3.233   4.788  0.5170  0.2457  0.0194
  253WAT     H1 1718   7.534   3.182   4.725  1.1560  0.3303 -0.3879
  253WAT     H2 1719   7.607   3.177   4.841 -1.4800 -0.0586  1.3521
  253WAT    EPW 1720   7.568   3.217   4.787 -0.2109  0.2780  0.3403
  254WAT      O 1721   2.624   0.862   5.157 -0.4958  0.5759 -0.3347
  254WAT     H1 1722   2.590   0.939   5.136 -1.5503  0.6235  1.3573
  254WAT     H2 1723   2.622   0.861   5.244  0.2285 -1.0474 -0.2871
  254WAT    EPW 1724   2.619   0.873   5.166 -0.0376 -0.5446 -0.1300
  255WAT      O 1725   1.176   0.872   2.158  0.3119 -0.8741 -0.0829
  255WAT     H1 1726   1.218   0.895   2.085  0.2667 -3.2604 -0.9888
  255WAT     H2 1727   1.104   0.921   2.157  0.8692 -0.0507 -1.0401
  255WAT    EPW 1728   1.172   0.882   2.147 -0.0065 -0.2778  0.0136
  256WAT      O 1729   6.639   4.584   4.530  0.3495  0.3281  0.6815
  256WAT     H1 1730   6.677   4.654   4.494  3.5332 -1.0089  1.0956
  256WAT     H2 1731   6.696   4.559   4.592 -0.8808 -2.3271  0.8943
  256WAT    EPW 1732   6.653   4.591   4.534  0.4085 -0.3388 -0.1666
  257WAT      O 1733   4.636   1.625   0.201 -0.8231 -0.2696  0.0918
  257WAT     H1 1734   4.593   1.601   0.273 -0.5006  2.1510  1.1953
  257WAT     H2 1735   4.636   1.712   0.205  0.0956 -0.0684 -2.3403
  257WAT    EPW 1736   4.630   1.634   0.212  0.7429 -0.1253  0.0320
  258WAT      O 1737   4.266   5.062   4.611  0.4440 -0.0868  0.3054
  258WAT     H1 1738   4.245   5.036   4.692  2.4975 -0.9144  0.6453
  258WAT     H2 1739   4.281   4.987   4.569 -0.0051  0.3641 -0.6633
  258WAT    EPW 1740   4.265   5.047   4.617  0.4953  0.0741  0.3082
  259WAT      O 1741   7.568   7.404   3.555  0.0297 -0.4070 -0.3327
  259WAT     H1 1742   7.649   7.372   3.567 -0.0882 -0.7569 -0.4748
  259WAT     H2 1743   7.566   7.424   3.470  0.0053 -0.2886 -0.3046
  259WAT    EPW 1744   7.580   7.403   3.544 -0.2302 -0.7565 -0.3623
  260WAT      O 1745   0.262   3.199   6.506  0.2467  0.2937 -0.1485
  260WAT     H1 1746   0.291   3.207   6.587  0.8458  0.0884 -0.3389
  260WAT     H2 1747   0.318   3.245   6.458 -0.7366  1.3602 -0.3372
  260WAT    EPW 1748   0.274   3.207   6.511 -0.9081 -0.6289 -0.0273
  261WAT      O 1749   6.385   4.794   6.078  0.4517 -0.1562 -0.2283
  261WAT     H1 1750   6.405   4.876   6.099 -2.6404  0.4566  0.8412
  261WAT     H2 1751   6.419   4.747   6.143  1.2575  0.3599 -0.2569
  261WAT    EPW 1752   6.393   4.799   6.090  0.8969  0.4144 -0.1326
  262WAT      O 1753   2.029   6.565   3.528  0.3854 -0.1366 -0.5833
  262WAT     H1 1754   2.025   6.617   3.598 -1.8121 -2.0140  0.8779
  262WAT     H2 1755   2.046   6.619   3.462  2.0299  1.8179  1.3082
  262WAT    EPW 1756   2.031   6.580   3.529  0.0692  0.2967  0.1951
  263WAT      O 1757   5.627   1.593   7.278 -0.0581 -0.1149  0.4825
  263WAT     H1 1758   5.660   1.567   7.354  0.6898  0.0577  0.2191
  263WAT     H2 1759   5.663   1.538   7.220 -0.0855  0.1887  0.1718
  263WAT    EPW 1760   5.637   1.581   7.280 -0.8412  0.2115  0.0037
  264WAT      O 1761   7.204   4.918   0.038  0.0893 -0.4713 -0.0136
  264WAT     H1 1762   7.199   4.905  -0.048 -1.3294 -0.6779  0.0644
  264WAT     H2 1763   7.190   5.004   0.046 -2.9971 -0.8714  0.1272
  264WAT    EPW 1764   7.201   4.929   0.026  0.4086  0.2549  0.3365
  265WAT      O 1765   1.182   5.577   7.224  0.0896  0.1840 -0.1276
  265WAT     H1 1766   1.132   5.508   7.204  0.2291  0.0266  0.0615
  265WAT     H2 1767   1.175   5.581   7.311 -0.0700  0.5226 -0.1545
  265WAT    EPW 1768   1.173   5.567   7.234 -0.6168  0.4764 -0.8341
  266WAT      O 1769   1.673   3.673   0.058 -0.2168 -0.6773  0.2672
  266WAT     H1 1770   1.748   3.717   0.067  1.0747 -2.5651 -0.7099
  266WAT     H2 1771   1.695   3.590   0.069 -1.9264 -1.4194 -1.2498
  266WAT    EPW 1772   1.687   3.667   0.061  0.3383  0.5917  0.2180
  267WAT      O 1773   1.857   5.055   4.957  0.3663  0.1356  0.1013
  267WAT     H1 1774   1.812   5.013   4.895  0.7797  0.8256 -0.6843
  267WAT     H2 1775   1.904   4.992   4.994  0.6948 -0.1782 -0.8108
  267WAT    EPW 1776   1.857   5.040   4.953  0.0987  0.4053  0.4195
  268WAT      O 1777   2.745   7.406   5.703  0.1034  0.7397 -0.4417
  268WAT     H1 1778   2.771   7.482   5.736 -0.4559  0.9692 -0.5327
  268WAT     H2 1779   2.809   7.385   5.648  2.0180 -0.5401  2.0364
  268WAT    EPW 1780   2.759   7.414   5.700  0.4094 -0.3390 -0.4186
  269WAT      O 1781   0.735   7.370   1.265 -0.0903 -0.0383  0.1783
  269WAT     H1 1782   0.706   7.401   1.189  0.5883 -1.5550 -0.7410
  269WAT     H2 1783   0.667   7.382   1.319 -0.5302  1.2015 -0.5961
  269WAT    EPW 1784   0.720   7.377   1.262 -0.3849 -0.0355  0.1476
  270WAT      O 1785   1.453   7.008   7.020  0.3379  0.0147  0.9199
  270WAT     H1 1786   1.471   7.077   6.969 -1.8017  1.7206  2.2789
  270WAT     H2 1787   1.532   6.980   7.045  1.3378  0.9246 -0.9517
  270WAT    EPW 1788   1.467   7.014   7.016 -0.4066  0.2956  0.4986
  271WAT      O 1789   5.997   5.527   3.493  0.1526 -0.9990  0.0922
  271WAT     H1 1790   6.047   5.515   3.564 -0.7565  0.8130  1.1305
  271WAT     H2 1791   6.038   5.592   3.451 -0.1313 -1.0286 -0.2249
  271WAT    EPW 1792   6.011   5.535   3.497  0.3374 -0.1979  0.5978
  272WAT      O 1793   4.376   3.818   0.960 -0.3484 -0.1235 -0.4486
  272WAT     H1 1794   4.365   3.745   0.912 -0.1773 -0.0336 -0.6263
  272WAT     H2 1795   4.336   3.799   1.035 -0.8996 -0.1537 -0.7368
  272WAT    EPW 1796   4.368   3.804   0.964  0.3739 -0.1258 -0.9745
  273WAT      O 1797   3.434   7.101   3.487  0.4597 -0.3730  0.3288
  273WAT     H1 1798   3.517   7.084   3.508  0.0261 -0.1766  2.4138
  273WAT     H2 1799   3.429   7.188   3.489  0.1366 -0.3945  0.4993
  273WAT    EPW 1800   3.445   7.111   3.490  0.3448  0.3196  0.7366
  274WAT      O 1801   0.196   3.494   6.103  0.2032  0.8760  0.9427
  274WAT     H1 1802   0.163   3.483   6.023  1.3929  0.2991  0.4995
  274WAT     H2 1803   0.151   3.438   6.152  0.6466 -0.0716  0.3050
  274WAT    EPW 1804   0.185   3.484   6.099  0.1497 -0.4776 -0.2191
  275WAT      O 1805   7.494   3.777   5.681 -0.2244 -0.2858 -0.0889
  275WAT     H1 1806   7.473   3.735   5.754 -0.7593  1.3831  0.7788
  275WAT     H2 1807   7.581   3.778   5.681 -0.1787 -2.0446 -0.5556
  275WAT    EPW 1808   7.503   3.771   5.692  0.1448 -0.5091 -0.3976
  276WAT      O 1809   2.821   5.729   3.799 -0.2084  0.3950 -0.5246
  276WAT     H1 1810   2.760   5.780   3.834 -0.8902 -0.0888 -0.9835
  276WAT     H2 1811   2.895   5.759   3.833 -0.8793 -0.4763  1.9372
  276WAT    EPW 1812   2.823   5.741   3.809 -0.4184  0.4973 -0.7242
  277WAT      O 1813   0.531   3.996   3.283  0.1745 -0.3258 -0.6238
  277WAT     H1 1814   0.590   3.932   3.294  0.6565  0.2664  0.3216
  277WAT     H2 1815   0.457   3.952   3.269  0.6850 -1.0851 -1.0165
  277WAT    EPW 1816   0.528   3.980   3.283 -0.0653 -0.6594 -0.5036
  278WAT      O 1817   6.440   3.776   3.302  0.5700  0.8726  0.6118
  278WAT     H1 1818   6.431   3.840   3.243  0.0663  0.9542  0.7675
  278WAT     H2 1819   6.515   3.738   3.280 -0.3643 -0.1215 -1.0860
  278WAT    EPW 1820   6.450   3.780   3.290 -0.0309  0.0164 -0.3489
  279WAT      O 1821   0.622   4.741   6.536 -0.3705 -0.0912 -0.2331
  279WAT     H1 1822   0.599   4.670   6.491  1.1843 -0.8423  0.0745
  279WAT     H2 1823   0.578   4.806   6.497  0.6283 -0.7422 -2.5866
  279WAT    EPW 1824   0.612   4.740   6.524  0.0554 -0.2154  0.2299
  280WAT      O 1825   2.879   7.068   3.939 -1.0026  0.0334 -0.0566
  280WAT     H1 1826   2.940   7.008   3.956  1.3550  1.7112 -1.8824
  280WAT     H2 1827   2.831   7.031   3.876 -0.5158 -0.5220 -0.1087
  280WAT    EPW 1828   2.881   7.054   3.932  0.2769 -0.6650  0.3741
  281WAT      O 1829   2.876   6.756   2.757  0.0255 -0.3341  0.0976
  281WAT     H1 1830   2.790   6.739   2.766 -0.3739  1.6769  0.6452
  281WAT     H2 1831   2.904   6.764   2.839  0.5698 -0.2018 -0.0987
  281WAT    EPW 1832   2.867   6.754   2.770  0.2877 -0.0346 -0.3397
  282WAT      O 1833   7.522   1.361   1.147 -0.2437  0.1676 -0.8390
  282WAT     H1 1834   7.543   1.442   1.121  0.2459  0.0817 -0.7256
  282WAT     H2 1835   7.571   1.311   1.095 -0.1640 -0.0377 -0.5684
  282WAT    EPW 1836   7.533   1.366   1.135  0.3471 -0.1945 -0.0963
  283WAT      O 1837   7.622   5.802   4.599  0.0528  0.3035 -0.2892
  283WAT     H1 1838   7.637   5.858   4.665  0.5199 -0.5225  0.3209
  283WAT     H2 1839   7.580   5.851   4.541 -1.5870  0.7423  1.1693
  283WAT    EPW 1840   7.618   5.818   4.600  0.3428  0.2767  0.2029
  284WAT      O 1841   0.328   0.555   3.300 -0.8561 -0.3163 -0.7930
  284WAT     H1 1842   0.345   0.611   3.235 -0.2585 -1.1961 -1.4168
  284WAT     H2 1843   0.405   0.516   3.314 -1.1976 -0.7833 -0.1696
  284WAT    EPW 1844   0.342   0.558   3.292  0.4930 -0.0438  0.0631
  285WAT      O 1845   5.922   2.079   2.487 -0.5682  0.2203  0.1295
  285WAT     H1 1846   5.910   2.057   2.570  1.7051  3.1024  1.3660
  285WAT     H2 1847   6.007   2.067   2.473 -0.7497  0.5295 -1.5608
  285WAT    EPW 1848   5.932   2.074   2.497  0.6269  0.2022  0.7046
  286WAT      O 1849   7.129   3.836   4.447 -0.1650  0.2023  0.2562
  286WAT     H1 1850   7.138   3.912   4.404  0.1174 -0.2982 -0.5798
  286WAT     H2 1851   7.098   3.782   4.387  0.1127 -0.4773  0.7135
  286WAT    EPW 1852   7.126   3.839   4.432 -0.1304  0.2499 -0.2551
  287WAT      O 1853   4.817   7.053   7.503 -0.0991 -0.0152 -0.3396
  287WAT     H1 1854   4.799   7.130   7.466  2.7413  0.4654 -0.9745
  287WAT     H2 1855   4.795   6.995   7.443 -2.1650  0.2317  0.0966
  287WAT    EPW 1856   4.811   7.056   7.489  0.0277 -0.6890  0.3588
  288WAT      O 1857   6.932   3.389   2.284 -0.1417  0.1066 -0.1003
  288WAT     H1 1858   6.978   3.462   2.276  2.3930 -1.4383 -1.0416
  288WAT     H2 1859   6.956   3.358   2.362  1.0441 -1.0285 -0.8666
  288WAT    EPW 1860   6.942   3.395   2.294 -0.2150 -0.4024 -0.0505
  289WAT      O 1861   1.354   2.311   3.149  0.0336  0.0070  0.2747
  289WAT     H1 1862   1.297   2.375   3.135  0.2617  0.2915  0.6011
  289WAT     H2 1863   1.424   2.336   3.103  0.0711 -0.0809  0.2840
  289WAT    EPW 1864   1.356   2.324   3.141 -1.0325  0.6790 -0.3382
  290WAT      O 1865   2.754   4.789   7.148 -0.5383 -0.1568  0.2213
  290WAT     H1 1866   2.724   4.836   7.081 -0.6079 -0.5004  0.0106
  290WAT     H2 1867   2.685   4.785   7.202 -0.3789  0.4073  0.4729
  290WAT    EPW 1868   2.739   4.795   7.146  0.3626 -0.4158 -0.2558
  291WAT      O 1869   0.316   0.079   0.806 -0.8743 -0.1293  0.4881
  291WAT     H1 1870   0.235   0.092   0.835 -1.2060  2.1916 -1.2651
  291WAT     H2 1871   0.349   0.159   0.800  1.5261 -1.0067  0.9566
  291WAT    EPW 1872   0.309   0.093   0.810  1.0338  0.2585  0.2051
  292WAT      O 1873   1.960   4.537   1.296  0.6320 -0.2207 -0.2552
  292WAT     H1 1874   2.004   4.601   1.255  0.1187 -0.3088 -0.9560
  292WAT     H2 1875   1.958   4.564   1.379  0.7005  0.5230 -0.4863
  292WAT    EPW 1876   1.966   4.551   1.303  0.1347 -0.0789 -0.1320
  293WAT      O 1877   6.450   6.485   5.163  0.2362  0.1425  0.1276
  293WAT     H1 1878   6.406   6.459   5.234  0.2806  0.0571  0.1241
  293WAT     H2 1879   6.518   6.530   5.195  0.8252 -0.7623  0.1807
  293WAT    EPW 1880   6.454   6.488   5.178 -0.1479  0.9047  0.2307
  294WAT      O 1881   6.163   5.388   3.955 -0.2328  0.0799  0.6652
  294WAT     H1 1882   6.145   5.320   3.904  1.2314 -0.2388  0.5298
  294WAT     H2 1883   6.250   5.388   3.960 -0.2779 -0.6321  4.1373
  294WAT    EPW 1884   6.174   5.378   3.948 -0.1535 -0.7844 -0.4409
  295WAT      O 1885   6.285   5.067   4.201 -0.6122 -0.0458 -0.1682
  295WAT     H1 1886   6.348   5.121   4.227  0.1256 -0.5818 -0.7878
  295WAT     H2 1887   6.259   5.028   4.274  0.8674 -0.9501 -0.0756
  295WAT    EPW 1888   6.290   5.069   4.216  0.1400 -0.2663  0.4112
  296WAT      O 1889   0.502   6.244   4.438  0.1710 -0.4012 -0.3701
  296WAT     H1 1890   0.466   6.253   4.517 -0.5095  0.7805 -0.7983
  296WAT     H2 1891   0.580   6.209   4.455  1.0199  1.9538  1.0781
  296WAT    EPW 1892   0.509   6.240   4.452 -0.3262  0.0197 -0.3190
  297WAT      O 1893   0.717   5.431   3.657  0.0846 -0.0787  0.3490
  297WAT     H1 1894   0.631   5.442   3.645  0.4056  1.0703 -1.2773
  297WAT     H2 1895   0.728   5.444   3.743 -1.0268  2.6273  0.1915
  297WAT    EPW 1896   0.706   5.435   3.668 -0.4688  0.0782  0.2030
  298WAT      O 1897   5.035   1.973   6.325 -0.2692 -0.1527 -0.4966
  298WAT     H1 1898   5.076   1.895   6.329 -0.4777 -0.2140  2.2900
  298WAT     H2 1899   4.950   1.951   6.323 -0.3593 -0.0685  1.0031
  298WAT    EPW 1900   5.029   1.958   6.325 -0.8657  0.5375 -0.0016
  299WAT      O 1901   7.473   1.248   6.435  0.2590  0.0912  0.0449
  299WAT     H1 1902   7.556   1.276   6.433  0.7147 -1.1831  0.1436
  299WAT     H2 1903   7.468   1.205   6.511 -0.9913  1.5399  0.8319
  299WAT    EPW 1904   7.484   1.245   6.446 -0.4411  0.2662  0.8760
  300WAT      O 1905   3.888   6.413   2.236  0.5750 -0.6441 -0.0376
  300WAT     H1 1906   3.855   6.397   2.314  1.5849  2.2015  1.1180
  300WAT     H2 1907   3.974   6.406   2.248  0.7427 -0.3573 -0.9417
  300WAT    EPW 1908   3.896   6.410   2.249  0.1475 -0.5259 -0.5350
  301WAT      O 1909   6.438   4.440   4.396 -1.0779 -0.2699 -0.4364
  301WAT     H1 1910   6.499   4.488   4.435 -1.8320 -0.0968  0.5936
  301WAT     H2 1911   6.474   4.417   4.320  0.3437 -0.3672  0.2397
  301WAT    EPW 1912   6.452   4.444   4.391 -0.1859  0.0699 -0.1969
  302WAT      O 1913   3.383   7.016   4.135 -0.1940 -0.4329 -0.4097
  302WAT     H1 1914   3.460   7.056   4.124 -0.1712 -0.4852 -0.4411
  302WAT     H2 1915   3.405   6.935   4.159 -0.2341 -0.5595 -0.7977
  302WAT    EPW 1916   3.397   7.010   4.137 -0.3610 -0.4793 -0.0906
  303WAT      O 1917   6.418   4.076   1.605 -0.2594  0.2430  0.3586
  303WAT     H1 1918   6.416   4.098   1.689 -0.0189  1.7449 -0.0143
  303WAT     H2 1919   6.372   4.138   1.566  0.8590  0.3972 -0.7880
  303WAT    EPW 1920   6.411   4.088   1.612  0.1975  0.4079 -0.0270
  304WAT      O 1921   3.983   0.030   0.719 -0.2256  0.3922  0.8144
  304WAT     H1 1922   3.983   0.056   0.803  1.5161  0.4849  0.8285
  304WAT     H2 1923   4.012   0.101   0.676 -1.3960  0.4452  0.0698
  304WAT    EPW 1924   3.987   0.045   0.725 -0.0154  0.7681 -0.0016
  305WAT      O 1925   4.765   1.214   2.749  0.6057 -0.0137 -0.1783
  305WAT     H1 1926   4.810   1.192   2.678 -0.7026  1.4078 -1.5608
  305WAT     H2 1927   4.748   1.299   2.736  0.4613  0.3204  1.9340
  305WAT    EPW 1928   4.769   1.223   2.736 -0.2677  0.7532  0.5977
  306WAT      O 1929   7.144   0.460   5.599  0.0940  0.4466  0.9689
  306WAT     H1 1930   7.211   0.509   5.572 -0.6292  0.7219 -0.4448
  306WAT     H2 1931   7.165   0.438   5.681  1.3265  1.5267  0.9614
  306WAT    EPW 1932   7.157   0.464   5.607  0.5522 -0.4154  0.4994
  307WAT      O 1933   6.403   0.898   2.115 -0.2172 -0.0534 -0.1284
  307WAT     H1 1934   6.365   0.968   2.152  0.7120  0.0281  0.6958
  307WAT     H2 1935   6.477   0.930   2.082 -1.1410 -0.0410 -2.4433
  307WAT    EPW 1936   6.408   0.913   2.115 -0.6799 -0.4104  0.5551
  308WAT      O 1937   1.049   0.194   6.817  0.3174  0.3536  0.1193
  308WAT     H1 1938   1.088   0.118   6.797 -0.0402 -1.1678  4.2813
  308WAT     H2 1939   1.113   0.252   6.808  0.8017 -0.4475 -2.4927
  308WAT    EPW 1940   1.064   0.191   6.812  0.2337  0.3656  0.2666
  309WAT      O 1941   1.699   6.389   7.083 -0.2051  0.0133 -0.1105
  309WAT     H1 1942   1.651   6.357   7.149  1.3661 -1.3685  0.4324
  309WAT     H2 1943   1.703   6.322   7.028  0.4120  0.3994 -0.5357
  309WAT    EPW 1944   1.692   6.374   7.085  0.2223 -0.0380  0.3553
  310WAT      O 1945   4.925   0.613   3.193  0.0974 -0.3424 -0.3922
  310WAT     H1 1946   4.889   0.544   3.232 -0.2472  0.1505  0.1897
  310WAT     H2 1947   4.856   0.660   3.167 -0.0316  2.4412  3.8931
  310WAT    EPW 1948   4.910   0.610   3.195  0.1177  0.2114  0.1097
  311WAT      O 1949   4.524   1.183   2.303  0.2645  0.1733 -0.6889
  311WAT     H1 1950   4.489   1.220   2.233  0.4600  0.3025 -0.7200
  311WAT     H2 1951   4.459   1.181   2.361  0.4246  1.1563 -0.4630
  311WAT    EPW 1952   4.509   1.188   2.301  0.7090  0.2432  0.1026
  312WAT      O 1953   1.021   4.083   2.669  0.4741 -0.0656  0.5638
  312WAT     H1 1954   0.998   4.073   2.752  0.4748  1.6526  0.8058
  312WAT     H2 1955   1.010   4.004   2.634 -0.8802 -0.4771  1.8646
  312WAT    EPW 1956   1.016   4.070   2.676  0.4625  0.3753 -0.1171
  313WAT      O 1957   4.139   4.300   5.947 -0.5758 -0.5625 -0.1893
  313WAT     H1 1958   4.147   4.381   5.916 -0.5249  0.4180  2.1666
  313WAT     H2 1959   4.056   4.296   5.972 -0.6121 -1.2805 -0.4257
  313WAT    EPW 1960   4.128   4.311   5.946 -0.4403 -0.4782 -0.1411
  314WAT      O 1961   7.333   6.679   4.342 -0.3408 -0.1540  0.4471
  314WAT     H1 1962   7.281   6.739   4.306  0.0942  0.2669  0.5113
  314WAT     H2 1963   7.388   6.658   4.278 -0.9145 -1.0052  0.2049
  314WAT    EPW 1964   7.333   6.685   4.328 -0.2550  0.0530 -0.2186
  315WAT      O 1965   1.015   4.009   7.358 -0.0825  0.2870  0.0738
  315WAT     H1 1966   1.019   3.945   7.299 -0.0687 -1.0316  1.4645
  315WAT     H2 1967   1.040   4.080   7.313 -0.0618 -0.6703 -1.4845
  315WAT    EPW 1968   1.019   4.010   7.342 -0.0072  0.1176  0.2154
  316WAT      O 1969   4.590   4.463   6.941 -0.5716  0.1536  0.4047
  316WAT     H1 1970   4.518   4.450   6.893  0.6903 -2.3294 -1.0037
  316WAT     H2 1971   4.568   4.431   7.019 -1.2019  0.0434  0.1892
  316WAT    EPW 1972   4.576   4.457   6.946 -0.2834 -0.2230 -0.1863
  317WAT      O 1973   1.482   7.153   1.896  0.1663  0.4132  0.1443
  317WAT     H1 1974   1.546   7.204   1.866  0.6617 -0.3265 -0.0767
  317WAT     H2 1975   1.415   7.172   1.842 -0.1866  2.0319  1.0895
  317WAT    EPW 1976   1.481   7.163   1.883 -0.2959  0.3556 -0.0126
  318WAT      O 1977   0.786   3.257   0.847  0.1919  0.0996  0.2397
  318WAT     H1 1978   0.819   3.193   0.798  0.0699 -0.8131  1.3001
  318WAT     H2 1979   0.750   3.214   0.914 -0.1397  1.2732  0.8357
  318WAT    EPW 1980   0.785   3.241   0.850 -0.1112 -0.2179 -0.3416
  319WAT      O 1981   2.208   6.643   7.024 -0.3834  0.0773  0.2076
  319WAT     H1 1982   2.221   6.637   6.938  1.1323 -1.7863  0.4935
  319WAT     H2 1983   2.273   6.693   7.052 -0.8252  0.6114  0.2980
  319WAT    EPW 1984   2.220   6.649   7.016 -0.3452 -0.1520 -0.0857
  320WAT      O 1985   0.849   7.435   3.651 -0.9373 -0.1723 -0.1772
  320WAT     H1 1986   0.927   7.395   3.652 -0.0133  1.5409  0.3473
  320WAT     H2 1987   0.810   7.402   3.581  1.0123  0.2239 -1.5396
  320WAT    EPW 1988   0.855   7.424   3.641  0.3193  0.2662 -0.5195
  321WAT      O 1989   5.092   7.058   7.175  0.3125  0.2208 -0.0515
  321WAT     H1 1990   5.101   7.142   7.153  0.4195 -0.0873 -1.2759
  321WAT     H2 1991   5.023   7.032   7.128  0.1611 -0.3305  0.4640
  321WAT    EPW 1992   5.083   7.067   7.164 -0.0733  0.2820  0.1237
  322WAT      O 1993   5.304   5.573   2.051  0.0864  0.4272  0.0397
  322WAT     H1 1994   5.257   5.523   2.105 -1.1551 -1.3708 -2.4819
  322WAT     H2 1995   5.250   5.638   2.030 -0.4532 -0.3150 -0.9792
  322WAT    EPW 1996   5.289   5.575   2.056  0.6674 -0.2981 -0.1002
  323WAT      O 1997   1.232   5.916   4.453  0.6725  0.1835 -0.0284
  323WAT     H1 1998   1.201   5.886   4.529  0.6764 -1.1562 -0.5250
  323WAT     H2 1999   1.294   5.972   4.478  0.6484 -0.1956  0.9637
  323WAT    EPW 2000   1.237   5.920   4.468 -0.3733  0.4721  0.5093
  324WAT      O 2001   2.540   1.488   4.030 -0.2893  0.1108  0.0689
  324WAT     H1 2002   2.608   1.434   4.021  0.8315  1.1752  1.6543
  324WAT     H2 2003   2.574   1.566   4.010 -1.2134  0.5722  0.2758
  324WAT    EPW 2004   2.555   1.492   4.026 -0.3900 -0.1515  0.3742
  325WAT      O 2005   2.634   0.800   6.170  0.0355  0.2573 -0.0457
  325WAT     H1 2006   2.576   0.859   6.141  0.8579  0.9100 -0.4103
  325WAT     H2 2007   2.645   0.823   6.253  0.3547  0.6278 -0.1870
  325WAT    EPW 2008   2.627   0.812   6.178  0.1665  0.2878 -0.9231
  326WAT      O 2009   1.167   5.701   1.239 -0.5145  0.0324 -0.5687
  326WAT     H1 2010   1.221   5.663   1.182  1.0507 -1.0664  1.4965
  326WAT     H2 2011   1.156   5.782   1.206  2.1389  0.1838 -1.2999
  326WAT    EPW 2012   1.173   5.708   1.226  0.0902  0.2723 -0.4917
  327WAT      O 2013   4.552   1.902   0.261 -0.4841  0.2007  0.0372
  327WAT     H1 2014   4.469   1.911   0.239 -0.0173  2.9874 -0.9607
  327WAT     H2 2015   4.595   1.910   0.186  0.7522  1.2476  0.8025
  327WAT    EPW 2016   4.546   1.905   0.247  0.1748  0.0478 -0.2657
  328WAT      O 2017   1.636   0.481   6.584 -0.1356 -0.6708  0.0722
  328WAT     H1 2018   1.676   0.471   6.661  0.9483 -1.8457 -0.6022
  328WAT     H2 2019   1.564   0.525   6.604  0.8810  0.4260  1.5245
  328WAT    EPW 2020   1.631   0.486   6.598  0.0711 -0.6723 -0.0415
  329WAT      O 2021   0.478   3.640   3.159 -0.2068  0.0692  0.7131
  329WAT     H1 2022   0.499   3.559   3.134  1.4815  0.5798  0.3308
  329WAT     H2 2023   0.465   3.633   3.245 -1.3445 -0.8178  0.4980
  329WAT    EPW 2024   0.479   3.627   3.168  0.1272  0.5601 -0.4452
  330WAT      O 2025   5.359   1.794   3.086 -0.2291  0.2287  0.6279
  330WAT     H1 2026   5.379   1.750   3.158 -1.2051  0.2496  0.9292
  330WAT     H2 2027   5.430   1.842   3.070  0.4047 -0.6009  0.9425
  330WAT    EPW 2028   5.372   1.795   3.094  0.1581 -0.2203  0.0547
  331WAT      O 2029   6.742   1.680   0.551  0.4725 -0.2123  0.3804
  331WAT     H1 2030   6.708   1.744   0.502 -1.8474 -2.0546 -0.6218
  331WAT     H2 2031   6.703   1.690   0.628  2.0393  1.0294  1.0605
  331WAT    EPW 2032   6.732   1.691   0.555 -0.4176 -0.1118  0.1077
  332WAT      O 2033   5.548   3.533   0.197 -0.0202 -0.1029 -0.5260
  332WAT     H1 2034   5.490   3.527   0.262  0.2535 -1.3453 -0.3828
  332WAT     H2 2035   5.598   3.463   0.208  0.6234  0.1892 -1.5184
  332WAT    EPW 2036   5.547   3.522   0.208 -0.5155  0.8495  0.4361
  333WAT      O 2037   7.557   6.819   3.068 -0.0791  0.1249 -0.3246
  333WAT     H1 2038   7.563   6.852   2.988  0.0826  0.1003 -0.3218
  333WAT     H2 2039   7.552   6.890   3.119  2.3286  0.2200 -0.1283
  333WAT    EPW 2040   7.557   6.835   3.064 -0.7082 -0.3293  0.3996
  334WAT      O 2041   2.097   1.560   0.512 -0.7915 -0.0218 -0.2666
  334WAT     H1 2042   2.017   1.555   0.548 -1.6892 -0.0022 -2.1651
  334WAT     H2 2043   2.086   1.614   0.445  0.3054 -1.6722 -1.8451
  334WAT    EPW 2044   2.083   1.567   0.508 -0.2089  0.6903 -0.0368
  335WAT      O 2045   0.926   4.305   0.654 -0.0020 -0.4252 -0.3008
  335WAT     H1 2046   0.880   4.279   0.584 -1.3109 -2.5998  1.2143
  335WAT     H2 2047   1.004   4.268   0.642 -0.1461 -0.5885 -0.7463
  335WAT    EPW 2048   0.931   4.296   0.642  0.3881 -0.2247 -0.2112
  336WAT      O 2049   0.717   3.178   2.973  0.3877 -0.6005  0.1626
  336WAT     H1 2050   0.717   3.136   3.049 -0.2162  0.0898  0.5530
  336WAT     H2 2051   0.644   3.149   2.934  0.8610 -1.1917 -0.2914
  336WAT    EPW 2052   0.706   3.168   2.978  0.0083 -0.2721 -0.0869
  337WAT      O 2053   5.557   6.926   3.716  0.8058 -0.2775  0.0381
  337WAT     H1 2054   5.553   7.013   3.714  3.1357 -0.1291 -0.5618
  337WAT     H2 2055   5.538   6.903   3.634  1.1145 -0.2738 -0.0344
  337WAT    EPW 2056   5.553   6.936   3.704  0.4875  0.1372 -0.0291
  338WAT      O 2057   4.603   1.228   4.840  0.4780  0.0829  0.5005
  338WAT     H1 2058   4.639   1.305   4.855  1.5421 -0.1940 -0.5022
  338WAT     H2 2059   4.631   1.179   4.907  1.9249 -0.1034 -0.2144
  338WAT    EPW 2060   4.612   1.232   4.852 -0.4017  0.6255  0.4020
  339WAT      O 2061   5.540   2.496   1.184  0.1697  0.2838 -0.0008
  339WAT     H1 2062   5.616   2.534   1.200  0.5224  0.0389 -1.0419
  339WAT     H2 2063   5.491   2.560   1.150  0.2776  0.1708 -0.3705
  339WAT    EPW 2064   5.544   2.511   1.181  0.3904  0.5936  0.0115
  340WAT      O 2065   5.953   7.567   7.046 -0.0948 -0.3554 -0.6929
  340WAT     H1 2066   5.979   7.635   6.998  0.9420 -0.1365  0.1359
  340WAT     H2 2067   5.866   7.578   7.052  0.0678  1.0006 -0.4469
  340WAT    EPW 2068   5.944   7.579   7.040 -0.0268 -0.7890  0.0629
  341WAT      O 2069   2.618   6.852   4.212 -0.2778 -0.1186  0.3490
  341WAT     H1 2070   2.578   6.899   4.151  1.2741  0.2052 -0.4565
  341WAT     H2 2071   2.554   6.800   4.243 -0.8774 -1.2399 -2.4640
  341WAT    EPW 2072   2.602   6.851   4.208 -0.6411  0.7165 -0.5360
  342WAT      O 2073   5.033   6.236   1.115 -0.4050 -0.2279 -0.1077
  342WAT     H1 2074   4.993   6.313   1.103  1.2906  1.0123  1.5134
  342WAT     H2 2075   5.078   6.225   1.041 -2.8795 -1.1941 -1.5700
  342WAT    EPW 2076   5.034   6.246   1.102  0.1051  0.5807 -0.4905
  343WAT      O 2077   3.447   5.010   0.272  0.4053  0.1790  0.3706
  343WAT     H1 2078   3.401   5.076   0.236 -0.5313 -0.3587  0.5456
  343WAT     H2 2079   3.529   5.029   0.251 -0.0631  0.0939 -1.7544
  343WAT    EPW 2080   3.452   5.023   0.264 -0.3827 -0.1291  0.0357
  344WAT      O 2081   4.667   1.794   0.503 -0.2549  0.2640  0.2694
  344WAT     H1 2082   4.641   1.863   0.457  2.2115  0.4735 -0.9502
  344WAT     H2 2083   4.609   1.733   0.482 -1.5423  1.4731  0.1111
  344WAT    EPW 2084   4.655   1.795   0.493 -0.0898  0.6054  0.3577
  345WAT      O 2085   6.671   6.369   2.384 -0.1228 -0.0905 -0.5992
  345WAT     H1 2086   6.648   6.372   2.300 -0.0222  1.0319 -0.6016
  345WAT     H2 2087   6.641   6.444   2.416 -0.1817 -0.5168  0.3845
  345WAT    EPW 2088   6.663   6.380   2.377  0.2143  0.1240  0.1449
  346WAT      O 2089   4.942   5.978   4.386 -0.2267  0.0631 -0.0299
  346WAT     H1 2090   4.983   5.915   4.341 -0.2711  0.5653 -0.8001
  346WAT     H2 2091   4.884   5.934   4.434 -0.6436 -0.4528 -0.9746
  346WAT    EPW 2092   4.940   5.962   4.386 -0.0775  0.3816  0.2105
  347WAT      O 2093   0.438   5.563   3.594 -0.4742 -0.2141 -0.2269
  347WAT     H1 2094   0.395   5.574   3.669 -0.6707 -0.4301 -0.3082
  347WAT     H2 2095   0.461   5.644   3.572  1.6679 -0.3206  1.2788
  347WAT    EPW 2096   0.435   5.577   3.602  0.5228  0.4608 -0.1723
  348WAT      O 2097   0.866   4.359   7.250  0.6891 -0.3368 -0.4198
  348WAT     H1 2098   0.942   4.317   7.255  0.5958 -0.3719  2.4150
  348WAT     H2 2099   0.875   4.425   7.306 -1.0654  0.1172 -0.6089
  348WAT    EPW 2100   0.878   4.362   7.259  0.5027  0.1755 -0.7457
  349WAT      O 2101   7.010   0.713   5.235 -0.3003 -0.2355 -0.2222
  349WAT     H1 2102   6.957   0.655   5.273  0.2397 -0.0885  0.7800
  349WAT     H2 2103   6.959   0.751   5.175  0.0691 -3.8546 -3.2266
  349WAT    EPW 2104   6.995   0.710   5.231 -0.4021 -0.2441  0.3226
  350WAT      O 2105   5.990   3.888   5.557  0.2621  0.3682 -0.2515
  350WAT     H1 2106   6.038   3.960   5.549  0.5952  0.3838  1.4652
  350WAT     H2 2107   5.975   3.883   5.643  1.2989 -2.2748 -0.1451
  350WAT    EPW 2108   5.995   3.898   5.568 -0.2610  0.4050  0.0559
  351WAT      O 2109   6.938   2.989   7.472  0.0937  0.4784 -0.1233
  351WAT     H1 2110   6.996   3.021   7.529 -1.0436 -1.2899  2.1952
  351WAT     H2 2111   6.901   3.060   7.438  1.4624  1.6116  0.6862
  351WAT    EPW 2112   6.941   3.004   7.475 -0.2198 -0.0215 -0.1218
  352WAT      O 2113   4.954   1.125   0.868  0.1727  0.2344 -0.2505
  352WAT     H1 2114   5.010   1.192   0.871  0.9835 -0.4441  0.2535
  352WAT     H2 2115   4.891   1.153   0.814 -0.9899  2.4995  2.0633
  352WAT    EPW 2116   4.953   1.139   0.861 -0.4081  0.0252 -0.4732
  353WAT      O 2117   6.999   4.546   3.357 -0.0332  0.5445  0.6680
  353WAT     H1 2118   6.950   4.497   3.303  0.7454 -0.0269  0.4521
  353WAT     H2 2119   7.065   4.572   3.306 -0.0399  1.1878  0.9853
  353WAT    EPW 2120   7.002   4.543   3.341 -0.5757 -0.1925 -1.2086
  354WAT      O 2121   1.553   0.722   5.534  0.0008  0.7120  0.7485
  354WAT     H1 2122   1.539   0.806   5.512 -0.1459  0.4537 -0.1865
  354WAT     H2 2123   1.475   0.685   5.525  0.3992  0.1223 -0.5427
  354WAT    EPW 2124   1.540   0.729   5.530 -0.6911 -0.0379 -0.1019
  355WAT      O 2125   1.383   3.265   1.426  0.5585  0.0207 -0.6824
  355WAT     H1 2126   1.312   3.255   1.476  1.0877 -0.4022  0.0076
  355WAT     H2 2127   1.370   3.209   1.361  0.1261  0.1515 -0.7103
  355WAT    EPW 2128   1.371   3.255   1.424 -0.0005  0.1903 -0.0039
  356WAT      O 2129   5.760   2.178   0.747 -0.2000  0.4756 -0.7954
  356WAT     H1 2130   5.828   2.127   0.728  0.7899  1.2075  0.5668
  356WAT     H2 2131   5.700   2.123   0.778  0.4187 -0.0002 -0.4201
  356WAT    EPW 2132   5.761   2.162   0.749  0.0207  0.6278 -0.3887
  357WAT      O 2133   2.478   0.364   4.579 -0.1936 -0.2877 -0.6306
  357WAT     H1 2134   2.536   0.384   4.518  0.4693 -0.2559 -0.0038
  357WAT     H2 2135   2.481   0.432   4.634 -0.8288 -0.2834 -0.5934
  357WAT    EPW 2136   2.487   0.377   4.578  0.3883 -0.6692  0.2952
  358WAT      O 2137   1.023   0.768   7.528  0.3784 -0.4799  0.5194
  358WAT     H1 2138   0.951   0.775   7.480  0.1620  1.6589  1.0731
  358WAT     H2 2139   1.086   0.752   7.469  0.0725  1.7266 -0.4945
  358WAT    EPW 2140   1.022   0.767   7.512 -0.2652  0.2034  0.2680
  359WAT      O 2141   5.918   6.062   5.730 -0.0896  0.4461 -0.0359
  359WAT     H1 2142   5.901   6.130   5.677 -0.3302  0.7662  0.4486
  359WAT     H2 2143   5.994   6.083   5.766 -0.2737  0.5706  0.2859
  359WAT    EPW 2144   5.926   6.075   5.727 -0.4314 -0.7071 -0.2625
  360WAT      O 2145   1.080   4.713   1.097 -0.6243 -0.0718  0.2820
  360WAT     H1 2146   1.126   4.643   1.119 -2.2378 -1.1745  0.2531
  360WAT     H2 2147   1.126   4.779   1.132 -0.4602 -1.3366  2.6753
  360WAT    EPW 2148   1.094   4.713   1.106  0.0723  0.1253  0.5049
  361WAT      O 2149   1.282   0.779   6.816  0.1232 -0.2321 -0.5118
  361WAT     H1 2150   1.247   0.700   6.825  0.1777 -0.2193 -0.1991
  361WAT     H2 2151   1.330   0.772   6.743 -0.6267 -0.2178 -1.0233
  361WAT    EPW 2152   1.284   0.767   6.807 -0.1530 -0.3449  0.0005
  362WAT      O 2153   3.497   6.207   4.965  0.0132  0.1024 -0.0653
  362WAT     H1 2154   3.484   6.143   5.023  1.0690  0.7514  0.9344
  362WAT     H2 2155   3.417   6.226   4.937 -0.6107  0.1467  1.6146
  362WAT    EPW 2156   3.483   6.201   4.969 -0.3523 -0.3413  0.3543
  363WAT      O 2157   5.410   3.657   1.603 -0.1606 -0.1393  0.4151
  363WAT     H1 2158   5.414   3.612   1.528 -0.7736 -0.5761  0.6481
  363WAT     H2 2159   5.491   3.691   1.610 -0.1153 -0.0306 -0.4764
  363WAT    EPW 2160   5.423   3.656   1.593  0.4353 -0.3450 -0.4247
  364WAT      O 2161   0.861   5.133   6.989 -0.3042  0.0718  0.1537
  364WAT     H1 2162   0.795   5.094   6.948 -0.5190  1.5893 -1.0601
  364WAT     H2 2163   0.917   5.152   6.925 -0.2550  1.7799  0.6535
  364WAT    EPW 2164   0.860   5.130   6.974  0.3618  0.1565 -0.0594
  365WAT      O 2165   5.629   4.465   1.354  1.0499  0.1598  0.6570
  365WAT     H1 2166   5.688   4.479   1.416  0.4227 -0.1855  1.3567
  365WAT     H2 2167   5.555   4.452   1.399  0.4109  0.7272 -0.1959
  365WAT    EPW 2168   5.627   4.465   1.370 -0.3429  0.1622  0.3625
  366WAT      O 2169   6.820   3.742   5.250  0.5394 -0.3466  0.2568
  366WAT     H1 2170   6.799   3.825   5.235  2.3208  0.0612 -0.1903
  366WAT     H2 2171   6.781   3.699   5.185 -0.6635  0.0702  0.6735
  366WAT    EPW 2172   6.811   3.748   5.239  0.0991  0.2536  0.2538
  367WAT      O 2173   4.888   2.557   2.795 -0.4499  0.1635  0.2979
  367WAT     H1 2174   4.960   2.518   2.824 -0.5275  0.8173  1.4881
  367WAT     H2 2175   4.825   2.500   2.813 -0.5906  0.8281  2.2172
  367WAT    EPW 2176   4.889   2.543   2.802 -0.2226 -0.2515 -0.0021
  368WAT      O 2177   6.839   1.566   4.582 -0.0612 -0.1739 -0.5352
  368WAT     H1 2178   6.887   1.565   4.655  0.7581 -1.4397 -1.0455
  368WAT     H2 2179   6.877   1.505   4.532 -0.9358  0.2741 -1.8040
  368WAT    EPW 2180   6.852   1.557   4.585  0.3970 -0.6198 -0.9778
  369WAT      O 2181   0.572   5.064   4.303  0.3564 -0.0235 -0.3369
  369WAT     H1 2182   0.645   5.029   4.271 -0.5583 -0.3017 -2.2729
  369WAT     H2 2183   0.509   5.025   4.257 -1.0050  0.4311  1.0655
  369WAT    EPW 2184   0.573   5.053   4.291 -0.3491 -0.2756 -0.7162
  370WAT      O 2185  -0.011   6.167   4.213  0.3033  0.5133 -0.3046
  370WAT     H1 2186   0.011   6.141   4.133  0.7564  0.5280 -0.1882
  370WAT     H2 2187   0.030   6.243   4.223  1.0268  0.0656  0.2860
  370WAT    EPW 2188  -0.001   6.175   4.203  0.1162 -0.2585 -0.5679
  371WAT      O 2189   1.739   4.364   3.378 -0.3651  0.4940  0.0477
  371WAT     H1 2190   1.718   4.321   3.451 -0.9048 -1.5489 -1.2340
  371WAT     H2 2191   1.792   4.428   3.406 -0.2248 -0.4727  2.1531
  371WAT    EPW 2192   1.744   4.367   3.393  0.1534 -0.7219 -0.1024
  372WAT      O 2193   5.771   1.186   5.930 -0.1036  0.0929  0.1562
  372WAT     H1 2194   5.779   1.257   5.880  0.6383  0.9588  1.4510
  372WAT     H2 2195   5.694   1.197   5.969 -0.8233 -0.7304 -0.9628
  372WAT    EPW 2196   5.761   1.198   5.928  0.0534 -0.0640 -0.1094
  373WAT      O 2197   0.443   5.997   6.817 -0.0918 -0.4476  0.7129
  373WAT     H1 2198   0.425   5.914   6.799 -1.9831 -0.3841  1.9796
  373WAT     H2 2199   0.466   6.031   6.740 -3.1468 -1.2349 -0.7206
  373WAT    EPW 2200   0.444   5.990   6.803 -0.2830 -0.3836  0.3198
  374WAT      O 2201   1.510   6.060   4.485  0.4013  0.5691 -0.0734
  374WAT     H1 2202   1.506   6.012   4.557 -0.2125 -0.2776 -0.6475
  374WAT     H2 2203   1.490   6.141   4.513 -0.7289  0.0933  0.5598
  374WAT    EPW 2204   1.506   6.065   4.500 -0.0442  0.6340  0.0148
  375WAT      O 2205   4.086   6.575   6.984 -0.2471  0.3394  0.0741
  375WAT     H1 2206   4.152   6.604   6.935 -0.8828  2.6458  0.4582
  375WAT     H2 2207   4.079   6.491   6.961  0.9806  0.7403 -2.0351
  375WAT    EPW 2208   4.095   6.567   6.973 -0.1345  0.2989  0.3924
  376WAT      O 2209   5.856   4.349   5.195 -0.2885  0.7858  0.0569
  376WAT     H1 2210   5.884   4.343   5.113 -1.2913  0.3846 -0.2748
  376WAT     H2 2211   5.771   4.369   5.187 -0.8509 -1.0407  0.9302
  376WAT    EPW 2212   5.848   4.351   5.182  0.1377  0.3055  0.5971
  377WAT      O 2213   3.475   4.079   0.359 -0.4633 -0.7936  0.3409
  377WAT     H1 2214   3.492   3.998   0.332 -0.6805 -0.5158 -0.7149
  377WAT     H2 2215   3.391   4.076   0.382 -0.9565 -0.5087 -1.2869
  377WAT    EPW 2216   3.465   4.067   0.358  0.0221 -0.5374 -0.5355
  378WAT      O 2217   1.255   5.034   4.221  0.0454 -0.1896 -0.3141
  378WAT     H1 2218   1.246   5.120   4.229 -0.8856 -0.2610 -0.4429
  378WAT     H2 2219   1.316   5.014   4.280  0.7605  0.6425 -0.7672
  378WAT    EPW 2220   1.262   5.044   4.231  0.2603  0.0260 -0.0626
  379WAT      O 2221   6.702   7.414   7.072 -0.3683  0.2819 -0.2692
  379WAT     H1 2222   6.650   7.351   7.041 -0.2939  0.3434 -0.5191
  379WAT     H2 2223   6.651   7.457   7.128 -0.1305 -0.5974  0.6451
  379WAT    EPW 2224   6.687   7.411   7.076 -0.6911  0.0831  0.4633
  380WAT      O 2225   1.195   2.322   6.222  0.7360 -0.1977 -0.0995
  380WAT     H1 2226   1.143   2.292   6.285  0.2766 -2.3694 -1.4133
  380WAT     H2 2227   1.275   2.306   6.253  0.5178 -1.0204  0.0797
  380WAT    EPW 2228   1.199   2.315   6.236  0.5156  1.0665 -0.5253
  381WAT      O 2229   6.970   6.022   4.364 -0.6323 -0.3814  0.6005
  381WAT     H1 2230   6.961   6.015   4.451  1.4961 -3.3076  0.7227
  381WAT     H2 2231   6.971   5.939   4.337  3.5143  0.1370 -1.5616
  381WAT    EPW 2232   6.969   6.009   4.373  0.0467  0.5133 -0.2005
  382WAT      O 2233   2.410   5.637   4.544 -0.1311 -0.4968 -0.3850
  382WAT     H1 2234   2.371   5.610   4.616  0.0487 -0.8584 -0.4243
  382WAT     H2 2235   2.346   5.637   4.484 -0.0578 -1.1537 -0.4659
  382WAT    EPW 2236   2.395   5.633   4.546  0.4271  0.4795  0.1492
  383WAT      O 2237   6.804   3.622   0.864  0.1959  0.2855 -0.1567
  383WAT     H1 2238   6.739   3.563   0.866  1.7996 -1.7439 -2.5565
  383WAT     H2 2239   6.869   3.580   0.824  3.0875  2.2129  2.0813
  383WAT    EPW 2240   6.804   3.607   0.859  0.6399  0.2182 -0.0020
  384WAT      O 2241   6.041   0.758   5.078  0.2350 -0.0800  0.9764
  384WAT     H1 2242   5.954   0.750   5.081  0.0557  0.3954 -1.2740
  384WAT     H2 2243   6.054   0.844   5.089  0.4867 -0.2109  1.7961
  384WAT    EPW 2244   6.030   0.769   5.080 -0.3097  0.1238 -0.4695
  385WAT      O 2245   7.020   1.509   6.603 -0.9672  0.4209  0.1903
  385WAT     H1 2246   7.060   1.500   6.526 -0.1794  0.5706  0.5656
  385WAT     H2 2247   6.964   1.575   6.590 -0.1855  1.0671 -0.0033
  385WAT    EPW 2248   7.018   1.517   6.590  0.4483 -0.2426  0.4667
  386WAT      O 2249   6.040   2.462   4.344  0.4416  0.1425  0.2523
  386WAT     H1 2250   6.108   2.421   4.380  1.0458  3.0245  2.8813
  386WAT     H2 2251   6.077   2.527   4.298 -0.4886  0.2121 -0.4303
  386WAT    EPW 2252   6.056   2.466   4.343 -0.7484  0.2887 -0.3130
  387WAT      O 2253   5.418   0.745   3.499  0.4837 -0.7324  0.7437
  387WAT     H1 2254   5.473   0.677   3.504  0.7541 -0.4477  1.8726
  387WAT     H2 2255   5.343   0.708   3.472  0.5858 -1.5155  1.4850
  387WAT    EPW 2256   5.415   0.729   3.496  0.2367  0.1766 -0.3132
  388WAT      O 2257   5.392   3.796   2.762  0.0442  0.1888 -0.2100
  388WAT     H1 2258   5.444   3.796   2.692 -1.3496 -1.3775 -1.3281
  388WAT     H2 2259   5.429   3.737   2.814  0.6321  0.7642  0.0446
  388WAT    EPW 2260   5.405   3.787   2.759 -0.0347  0.0819 -0.4849
  389WAT      O 2261   5.208   2.646   0.490 -0.3977  0.5358  0.3861
  389WAT     H1 2262   5.227   2.643   0.405  0.3206  1.2670  0.5136
  389WAT     H2 2263   5.235   2.725   0.515 -2.4387  1.1376  0.8760
  389WAT    EPW 2264   5.214   2.657   0.482 -0.9002  0.8605 -0.3510
  390WAT      O 2265   5.492   2.009   0.492  0.6895  0.1239  0.4871
  390WAT     H1 2266   5.536   2.078   0.462  0.6719  1.0163  2.3349
  390WAT     H2 2267   5.451   2.040   0.563  0.0340 -1.5886  0.9110
  390WAT    EPW 2268   5.493   2.024   0.498 -0.8605 -0.1918  0.6782
  391WAT      O 2269   4.607   0.027   4.717  0.2493  0.5822  0.8942
  391WAT     H1 2270   4.637  -0.023   4.652  0.4014  0.3244  1.1617
  391WAT     H2 2271   4.525  -0.002   4.730  0.7272 -0.4265  1.8537
  391WAT    EPW 2272   4.599   0.015   4.709 -0.1713  0.1774  0.1390
  392WAT      O 2273   5.874   1.708   2.504  0.8162  0.6608 -0.0464
  392WAT     H1 2274   5.813   1.721   2.444  0.1061  1.8936  0.9013
  392WAT     H2 2275   5.922   1.643   2.471 -1.7141 -1.2406 -0.2614
  392WAT    EPW 2276   5.872   1.701   2.491  0.3694  0.2798  0.9597
  393WAT      O 2277   0.219   6.976   1.816 -0.1703  0.7382  0.0212
  393WAT     H1 2278   0.172   7.047   1.799  1.0269  1.6281  0.3358
  393WAT     H2 2279   0.249   6.952   1.737 -1.2806  0.0342 -0.2155
  393WAT    EPW 2280   0.217   6.983   1.801 -0.0730 -0.7134  0.1221
  394WAT      O 2281   1.686   1.920   4.843  0.6970 -0.4075  0.8615
  394WAT     H1 2282   1.686   2.008   4.846 -1.3112 -0.3080 -0.0882
  394WAT     H2 2283   1.697   1.897   4.926  1.3712  0.7296  1.1126
  394WAT    EPW 2284   1.687   1.930   4.856 -0.0016  0.0550  0.1647
  395WAT      O 2285   3.499   5.955   2.396 -0.2932 -0.3922 -0.4651
  395WAT     H1 2286   3.431   5.966   2.343  0.0052  2.7010 -0.3962
  395WAT     H2 2287   3.464   5.919   2.468 -1.7524  0.5439 -0.6704
  395WAT    EPW 2288   3.484   5.951   2.399 -0.6333  0.4215 -0.2526
  396WAT      O 2289   2.265   1.343   1.287 -0.6594  0.0537 -0.2073
  396WAT     H1 2290   2.324   1.380   1.235  0.7025 -0.9997  0.5249
  396WAT     H2 2291   2.236   1.410   1.336  0.8896  0.4047  0.2903
  396WAT    EPW 2292   2.269   1.358   1.287 -0.1550 -0.6065  0.0381
  397WAT      O 2293   6.518   2.811   1.335 -0.2229  0.3468 -0.5099
  397WAT     H1 2294   6.534   2.725   1.342 -0.9573  0.0786 -1.7873
  397WAT     H2 2295   6.597   2.844   1.315 -0.0018 -0.0733 -0.3543
  397WAT    EPW 2296   6.532   2.803   1.333 -0.2974  0.6058  0.2159
  398WAT      O 2297   1.218   4.770   0.857  0.2556 -1.0086  0.2336
  398WAT     H1 2298   1.223   4.702   0.802  2.3450 -0.4960 -0.2976
  398WAT     H2 2299   1.180   4.736   0.927 -0.8201 -2.1406 -0.8453
  398WAT    EPW 2300   1.213   4.755   0.859  0.5660 -0.1073 -0.1191
  399WAT      O 2301   3.586   1.536   7.011 -0.2238  0.2967  0.1582
  399WAT     H1 2302   3.662   1.500   6.991 -0.1159  1.1954 -1.1475
  399WAT     H2 2303   3.553   1.560   6.934 -1.7135  0.1703  0.7149
  399WAT    EPW 2304   3.592   1.534   6.997 -0.6003  0.0741  0.6206
  400WAT      O 2305   2.390   2.370   3.328  0.1335  0.3479  0.8246
  400WAT     H1 2306   2.357   2.429   3.273  0.3509 -0.1268  0.1756
  400WAT     H2 2307   2.361   2.294   3.296  1.6588 -0.0630  0.3722
  400WAT    EPW 2308   2.381   2.368   3.315 -0.0653 -0.3489 -0.1901
  401WAT      O 2309   3.873   1.062   0.218 -0.4501  0.2330  0.2017
  401WAT     H1 2310   3.817   1.028   0.275 -1.1049  1.1219  0.1115
  401WAT     H2 2311   3.881   1.145   0.244  1.8513 -0.1694  1.0040
  401WAT    EPW 2312   3.866   1.069   0.230  0.1925  0.1219 -0.2819
  402WAT      O 2313   2.783   7.495   4.076  0.1940  0.3151 -0.4446
  402WAT     H1 2314   2.852   7.467   4.120  0.1679 -0.5831 -0.9519
  402WAT     H2 2315   2.817   7.541   4.011  0.2903  0.3840 -0.3450
  402WAT    EPW 2316   2.798   7.498   4.073 -0.0293 -0.5799 -0.2839
  403WAT      O 2317   7.104   3.999   0.631 -0.0835 -0.1341  0.0811
  403WAT     H1 2318   7.057   4.027   0.563 -1.0326  1.0903  1.1819
  403WAT     H2 2319   7.186   4.007   0.604 -0.4370 -1.2911 -1.5089
  403WAT    EPW 2320   7.109   4.004   0.617 -0.0191  0.5015  0.0237
  404WAT      O 2321   3.033   4.938   2.492 -0.5822  0.6052 -0.3319
  404WAT     H1 2322   3.058   4.855   2.482 -1.8525  0.2295 -0.5649
  404WAT     H2 2323   3.000   4.939   2.573  0.0175  1.0522 -0.0866
  404WAT    EPW 2324   3.032   4.925   2.503  0.7876 -0.2643  0.8390
  405WAT      O 2325   7.386   2.057   3.240  0.0192 -0.2446  0.2828
  405WAT     H1 2326   7.343   2.131   3.224  2.1457  1.3374  1.4919
  405WAT     H2 2327   7.336   1.996   3.201 -1.9759  1.7318 -0.4658
  405WAT    EPW 2328   7.372   2.059   3.232 -0.9268 -0.3049  0.5685
  406WAT      O 2329   0.071   0.857   0.449  0.6923 -0.4688  0.0362
  406WAT     H1 2330   0.057   0.775   0.423 -1.2385 -0.0026 -0.5055
  406WAT     H2 2331   0.098   0.847   0.532 -2.1048 -1.5947  0.9172
  406WAT    EPW 2332   0.073   0.844   0.458  0.0016 -0.1737 -0.5786
  407WAT      O 2333   5.712   3.290   5.547  0.1234  0.1480 -0.0260
  407WAT     H1 2334   5.729   3.217   5.503  2.8095  0.7078 -0.0798
  407WAT     H2 2335   5.704   3.264   5.629 -0.2379 -0.3465 -0.2157
  407WAT    EPW 2336   5.713   3.275   5.553  0.2378  0.0524 -0.2209
  408WAT      O 2337   0.377   0.560   4.792 -0.3251  0.3225  0.2069
  408WAT     H1 2338   0.405   0.624   4.740 -1.0912 -0.5571 -1.3268
  408WAT     H2 2339   0.330   0.602   4.852  0.4506  1.3309  0.1365
  408WAT    EPW 2340   0.375   0.576   4.793  0.5195  0.4669  0.1182
  409WAT      O 2341   6.452   1.012   0.520  0.1289  0.0898  0.0917
  409WAT     H1 2342   6.536   1.032   0.532  0.4511 -1.6219  1.1160
  409WAT     H2 2343   6.419   1.083   0.481  2.1702  0.5419 -0.9509
  409WAT    EPW 2344   6.460   1.026   0.516  0.2086  0.6870  0.2485
  410WAT      O 2345   6.112   3.494   0.972 -0.1190 -0.4575  0.2044
  410WAT     H1 2346   6.098   3.467   1.054 -1.4733 -0.9687 -0.1723
  410WAT     H2 2347   6.101   3.422   0.924  0.5104 -0.1325 -0.4491
  410WAT    EPW 2348   6.108   3.479   0.977 -0.0187 -0.1982 -0.3199
  411WAT      O 2349   4.088   5.588   6.349  0.3435 -0.0789  0.4393
  411WAT     H1 2350   4.060   5.638   6.283  0.3080 -1.1423 -0.3689
  411WAT     H2 2351   4.014   5.562   6.388  0.2840 -0.7615 -0.1045
  411WAT    EPW 2352   4.073   5.592   6.345 -0.5820 -0.1872 -0.2748
  412WAT      O 2353   4.585   5.130   1.872 -0.1006  0.2124 -0.7135
  412WAT     H1 2354   4.602   5.102   1.953 -0.0797 -0.8971 -1.0893
  412WAT     H2 2355   4.655   5.106   1.826 -0.3103  0.4387 -1.1609
  412WAT    EPW 2356   4.597   5.122   1.877  0.0067  0.0628  0.4123
  413WAT      O 2357   2.682   6.141   4.519 -0.3880  0.5937 -0.6218
  413WAT     H1 2358   2.683   6.105   4.598 -0.3002 -1.0659 -1.3302
  413WAT     H2 2359   2.597   6.151   4.503 -0.4021  1.0524 -0.2752
  413WAT    EPW 2360   2.669   6.137   4.528  0.2386 -0.2263  0.3417
  414WAT      O 2361   5.076   7.215   5.380  0.2533 -0.2329  0.2792
  414WAT     H1 2362   5.068   7.130   5.365 -0.0246 -0.4782  1.7386
  414WAT     H2 2363   5.162   7.226   5.391  0.6592  0.1753 -2.4810
  414WAT    EPW 2364   5.088   7.204   5.379 -0.0510 -0.1457  0.3493
  415WAT      O 2365   2.768   3.652   5.989 -0.0009 -0.5202 -0.0218
  415WAT     H1 2366   2.695   3.607   6.005  0.1123 -0.3956  0.8971
  415WAT     H2 2367   2.739   3.733   5.971 -0.0919 -0.5097  0.1787
  415WAT    EPW 2368   2.753   3.657   5.988 -0.8990 -0.6279 -0.0018
  416WAT      O 2369   6.604   0.198   1.106 -0.2974 -0.0712  0.1810
  416WAT     H1 2370   6.663   0.153   1.151 -0.8874 -2.1864 -1.0443
  416WAT     H2 2371   6.652   0.248   1.052  0.3709 -0.3001  0.5560
  416WAT    EPW 2372   6.620   0.199   1.105  0.1916 -0.1894 -0.2988
  417WAT      O 2373   2.871   0.066   0.385 -0.5349 -0.0320 -0.2191
  417WAT     H1 2374   2.935   0.122   0.364  0.2331 -1.4283 -1.8211
  417WAT     H2 2375   2.801   0.117   0.396  0.4803  1.3703 -0.0542
  417WAT    EPW 2376   2.870   0.082   0.384 -0.1665 -0.1506 -0.5774
  418WAT      O 2377   2.121   5.801   6.432  0.3577 -0.1619  0.4582
  418WAT     H1 2378   2.092   5.848   6.364 -1.6978 -0.7408  0.8588
  418WAT     H2 2379   2.189   5.757   6.399  0.0601  0.3688 -0.9407
  418WAT    EPW 2380   2.127   5.801   6.417 -0.3575  0.0866  0.4315
  419WAT      O 2381   1.878   6.526   1.007  0.0723  0.9847 -0.6922
  419WAT     H1 2382   1.957   6.535   0.971  0.5315 -1.8434 -0.6219
  419WAT     H2 2383   1.824   6.530   0.939  0.4664  0.7761 -1.0232
  419WAT    EPW 2384   1.882   6.528   0.992  0.3089 -0.0842 -0.4193
  420WAT      O 2385   2.957   6.132   4.208 -0.2998  0.2355 -0.1941
  420WAT     H1 2386   3.014   6.111   4.271  0.9498  1.4340 -0.8614
  420WAT     H2 2387   2.884   6.092   4.233  0.5621 -0.5686  1.2170
  420WAT    EPW 2388   2.955   6.123   4.221 -0.3066  0.6533  0.3832
  421WAT      O 2389   5.833   4.596   6.970  0.8743  0.2275 -0.3736
  421WAT     H1 2390   5.836   4.643   6.897  2.3654  1.6688  0.5506
  421WAT     H2 2391   5.810   4.654   7.031 -0.1804 -0.9049  0.3819
  421WAT    EPW 2392   5.830   4.612   6.968 -0.1353 -0.5047  0.0338
  422WAT      O 2393   6.823   5.215   4.631  0.5087  0.2600  0.2306
  422WAT     H1 2394   6.783   5.206   4.708 -1.0290  1.1975 -0.4015
  422WAT     H2 2395   6.866   5.290   4.639  1.2468 -0.1791  0.5170
  422WAT    EPW 2396   6.823   5.225   4.644  0.0793  0.0543  0.3565
  423WAT      O 2397  -0.015   2.818   0.830 -0.0019 -0.3381 -0.6575
  423WAT     H1 2398  -0.003   2.889   0.879 -0.3913 -0.7595  0.0528
  423WAT     H2 2399   0.065   2.800   0.801  0.1797  0.0982 -0.4371
  423WAT    EPW 2400  -0.001   2.826   0.833 -0.2050 -0.1597 -0.1399
  424WAT      O 2401   2.775   4.269   3.763 -0.0027  0.0607  0.3065
  424WAT     H1 2402   2.696   4.286   3.732 -1.2091 -0.7514  2.6875
  424WAT     H2 2403   2.800   4.198   3.719 -1.9424 -1.4563  1.4908
  424WAT    EPW 2404   2.767   4.261   3.752 -0.0493  0.0171 -0.6017
  425WAT      O 2405   6.413   2.406   7.156 -0.0198  1.0051 -0.4322
  425WAT     H1 2406   6.333   2.402   7.191 -0.9962  1.1179 -2.5289
  425WAT     H2 2407   6.400   2.442   7.078  1.8108 -0.6731 -1.6111
  425WAT    EPW 2408   6.399   2.411   7.150 -0.0770  0.0865 -0.4407
  426WAT      O 2409   2.562   0.472   3.702  0.0868  0.1834 -0.2992
  426WAT     H1 2410   2.478   0.479   3.677  0.1642  0.1797 -0.5605
  426WAT     H2 2411   2.587   0.555   3.709 -0.4347  0.2466  1.4855
  426WAT    EPW 2412   2.553   0.486   3.699 -0.3861 -0.4031  0.4329
  427WAT      O 2413   5.280   6.837   4.986 -0.5033  0.3549 -0.6358
  427WAT     H1 2414   5.319   6.759   4.987 -0.4890  0.3334  1.0761
  427WAT     H2 2415   5.234   6.837   5.060 -1.5844  1.4515 -1.2781
  427WAT    EPW 2416   5.279   6.825   4.997 -0.1267 -0.2306  0.0816
  428WAT      O 2417   0.977   4.272   5.134  0.0196 -0.5780 -0.6693
  428WAT     H1 2418   1.064   4.280   5.127  0.0120 -0.2944 -0.4303
  428WAT     H2 2419   0.947   4.341   5.091 -0.0907 -0.6687 -0.7386
  428WAT    EPW 2420   0.986   4.283   5.127 -1.0345  0.0294 -0.4564
  429WAT      O 2421   7.327   0.753   6.369 -0.1400  0.1596  0.0879
  429WAT     H1 2422   7.401   0.765   6.324 -0.4119 -0.1704 -0.4485
  429WAT     H2 2423   7.316   0.830   6.410  1.1333 -0.1839  1.1375
  429WAT    EPW 2424   7.336   0.766   6.369 -0.2073  0.3411  0.2810
  430WAT      O 2425   7.534   1.360   2.370 -0.4679 -0.3204 -0.4918
  430WAT     H1 2426   7.572   1.437   2.389  0.6249 -0.3092 -2.3648
  430WAT     H2 2427   7.587   1.302   2.408  0.1532 -0.2106 -1.1560
  430WAT    EPW 2428   7.548   1.363   2.378  0.4159 -0.2135  0.0274
  431WAT      O 2429   6.052   5.316   5.437  0.1534 -0.0428 -0.0484
  431WAT     H1 2430   6.067   5.230   5.445  0.2765 -0.1348 -1.1993
  431WAT     H2 2431   6.130   5.348   5.414 -0.3731  0.0561 -1.8241
  431WAT    EPW 2432   6.066   5.308   5.435 -0.3519  0.5431 -0.2903
  432WAT      O 2433   4.880   6.961   4.853 -0.0327  0.1969 -0.0190
  432WAT     H1 2434   4.917   7.003   4.920 -0.1782 -0.3574  0.4077
  432WAT     H2 2435   4.934   6.979   4.786 -0.7396  2.0831 -0.1447
  432WAT    EPW 2436   4.893   6.970   4.853 -0.5117 -0.0274  0.8539
  433WAT      O 2437   5.094   7.232   2.338 -0.3586  0.4847 -0.5186
  433WAT     H1 2438   5.093   7.150   2.368 -1.5803  1.2792  1.9180
  433WAT     H2 2439   5.178   7.254   2.342 -0.3195  0.2236  1.6948
  433WAT    EPW 2440   5.106   7.223   2.343 -0.2754  0.3840  0.2668
  434WAT      O 2441   0.534   2.678   4.465 -0.1715  0.0331 -0.3154
  434WAT     H1 2442   0.534   2.683   4.552 -2.1566 -0.1774 -0.2525
  434WAT     H2 2443   0.550   2.593   4.450  1.3279  0.2689 -0.2381
  434WAT    EPW 2444   0.536   2.666   4.476  0.8494  0.0161 -0.7324
  435WAT      O 2445   6.593   0.320   4.770 -0.1384  0.1199  0.2528
  435WAT     H1 2446   6.515   0.348   4.745  0.0209 -0.2561 -0.7301
  435WAT     H2 2447   6.648   0.370   4.724  0.2475  1.1383  1.7449
  435WAT    EPW 2448   6.590   0.331   4.760 -0.7838 -0.1060  0.0028
  436WAT      O 2449   6.516   3.088   7.343 -0.2832 -0.1643  0.0171
  436WAT     H1 2450   6.435   3.100   7.373 -0.3031 -1.1603  0.3942
  436WAT     H2 2451   6.538   3.010   7.375  0.6081 -0.1599 -0.5670
  436WAT    EPW 2452   6.507   3.078   7.352  0.3245  0.1287  0.7089
  437WAT      O 2453   3.618   6.535   4.052 -0.6684  0.4712  0.3987
  437WAT     H1 2454   3.650   6.463   4.014  1.1056  1.7933 -0.8400
  437WAT     H2 2455   3.646   6.599   3.999  0.8093  2.3731  3.2355
  437WAT    EPW 2456   3.627   6.534   4.038  0.5131  0.2998  0.8618
  438WAT      O 2457   2.447   2.165   4.200  0.4302  0.1946 -0.1621
  438WAT     H1 2458   2.393   2.096   4.195 -0.3419  0.8207 -0.5868
  438WAT     H2 2459   2.449   2.196   4.119  0.1078  1.1643  0.1841
  438WAT    EPW 2460   2.439   2.159   4.188 -0.3350 -0.5333 -0.1561
  439WAT      O 2461   4.827   2.446   3.883  0.1347  0.4415 -0.4987
  439WAT     H1 2462   4.855   2.510   3.831  0.0780 -1.0986 -2.5855
  439WAT     H2 2463   4.741   2.446   3.871  0.0671  0.4049 -0.0076
  439WAT    EPW 2464   4.819   2.455   3.873  0.0445 -0.2471  0.7757
  440WAT      O 2465   2.723   4.424   1.002 -0.5067 -0.0581 -0.1454
  440WAT     H1 2466   2.738   4.471   1.073 -1.0713 -1.7050  1.1210
  440WAT     H2 2467   2.788   4.448   0.948 -0.1730  1.3549  0.8260
  440WAT    EPW 2468   2.735   4.434   1.004  0.0458  0.2227  0.1427
  441WAT      O 2469   6.702   3.694   3.275  0.1500  0.4300  0.3018
  441WAT     H1 2470   6.728   3.612   3.291  0.4085  0.4232 -0.1352
  441WAT     H2 2471   6.720   3.705   3.190  1.7202  1.5008  0.7199
  441WAT    EPW 2472   6.709   3.683   3.265 -0.1639  0.2755 -0.0313
  442WAT      O 2473   3.027   1.938   5.044 -0.0783  0.2290 -0.3300
  442WAT     H1 2474   2.946   1.930   5.077  1.0019  0.2883  2.6522
  442WAT     H2 2475   3.078   1.917   5.111  2.4528  2.8607 -1.2616
  442WAT    EPW 2476   3.022   1.934   5.059 -0.0041 -0.4962 -0.0248
  443WAT      O 2477   6.913   2.322   6.334 -0.1202 -0.0409  0.0161
  443WAT     H1 2478   6.934   2.317   6.249  0.8013 -1.7817  0.3271
  443WAT     H2 2479   6.887   2.405   6.342  0.7937  0.4806 -1.7295
  443WAT    EPW 2480   6.912   2.334   6.322  0.1428  0.2275 -0.7055
  444WAT      O 2481   6.793   6.425   2.742 -0.7196 -0.0414  0.6741
  444WAT     H1 2482   6.756   6.495   2.706 -0.2930 -0.1355  0.0315
  444WAT     H2 2483   6.856   6.458   2.792 -0.6381  0.0471  0.5142
  444WAT    EPW 2484   6.797   6.440   2.744  0.3334 -0.4642 -0.4309
  445WAT      O 2485   4.770   6.173   7.290  0.2921 -0.0722  0.2501
  445WAT     H1 2486   4.844   6.204   7.254  0.1973  0.6597  0.6645
  445WAT     H2 2487   4.707   6.214   7.245  0.1693  0.6467  1.0522
  445WAT    EPW 2488   4.772   6.183   7.278  0.4701 -0.4233 -0.0464
  446WAT      O 2489   3.955   4.712   2.262  0.1720 -0.6471  0.0692
  446WAT     H1 2490   4.037   4.687   2.277  1.0713  2.1167  0.3983
  446WAT     H2 2491   3.927   4.739   2.340 -0.3216  0.2792 -0.4082
  446WAT    EPW 2492   3.963   4.712   2.275 -0.0771  0.0742 -0.3498
  447WAT      O 2493   1.314   6.395   1.237  0.7317 -0.1995  0.1528
  447WAT     H1 2494   1.306   6.308   1.230  1.1273 -0.2858  0.7052
  447WAT     H2 2495   1.233   6.422   1.254  0.5858 -0.4468 -0.1385
  447WAT    EPW 2496   1.301   6.386   1.239 -0.1865 -0.0548 -0.3933
  448WAT      O 2497   4.104   6.636   2.664 -0.4680  0.6244 -0.6696
  448WAT     H1 2498   4.139   6.680   2.731  1.4184 -0.0256 -1.1484
  448WAT     H2 2499   4.036   6.595   2.699 -0.7952  1.9768  0.3421
  448WAT    EPW 2500   4.099   6.636   2.679 -0.4039  0.0635 -0.0144
  449WAT      O 2501   5.817   0.988   5.758 -0.0421  0.5122  0.2470
  449WAT     H1 2502   5.805   1.060   5.806  1.0427  0.6782  0.2860
  449WAT     H2 2503   5.860   1.017   5.687  1.3077 -0.2252  0.7316
  449WAT    EPW 2504   5.821   1.003   5.754  0.0311  0.2718 -0.2397
  450WAT      O 2505   3.928   2.349   2.837  0.3095 -0.3176  0.5162
  450WAT     H1 2506   3.870   2.404   2.870  0.1958 -0.3943  0.4421
  450WAT     H2 2507   3.959   2.307   2.907  0.7834  0.2106  0.6355
  450WAT    EPW 2508   3.924   2.351   2.852  0.3795  0.5047 -0.3183
  451WAT      O 2509   4.567   1.292   6.215  0.5135  0.3589 -1.0148
  451WAT     H1 2510   4.638   1.338   6.235 -0.0068  0.9262 -0.4091
  451WAT     H2 2511   4.597   1.229   6.163  1.1344  1.8428 -2.5400
  451WAT    EPW 2512   4.582   1.289   6.210 -0.3652 -0.0990 -0.2811
  452WAT      O 2513   6.223   6.006   7.253 -0.0938  0.5885 -0.3142
  452WAT     H1 2514   6.249   5.940   7.202 -0.4906 -1.0812  1.5271
  452WAT     H2 2515   6.293   6.023   7.301  0.0629  1.6958 -0.8976
  452WAT    EPW 2516   6.237   5.999   7.252  0.1251 -0.1124  0.3290
  453WAT      O 2517   6.255   5.345   6.918  0.1180  0.2442  0.0073
  453WAT     H1 2518   6.210   5.333   6.845  0.4079  0.1003 -0.1532
  453WAT     H2 2519   6.333   5.373   6.890  0.5873 -0.8163  0.1870
  453WAT    EPW 2520   6.260   5.347   6.903 -0.1040  0.6639 -0.6924
  454WAT      O 2521   3.644   5.504   4.035 -0.1744  0.3737  0.1069
  454WAT     H1 2522   3.711   5.558   4.026 -0.4242  0.8051  0.7418
  454WAT     H2 2523   3.575   5.552   4.012 -0.1468 -0.5232 -2.0477
  454WAT    EPW 2524   3.644   5.519   4.030 -0.0086  0.0904 -0.0719
  455WAT      O 2525   6.126   2.411   2.771  0.2433  0.4755 -0.5301
  455WAT     H1 2526   6.138   2.496   2.753 -0.2667  0.8621  0.8931
  455WAT     H2 2527   6.079   2.382   2.703  1.6187  0.9692 -1.7520
  455WAT    EPW 2528   6.121   2.419   2.758 -0.2470 -0.2668 -0.7091
  456WAT      O 2529   2.573   2.991   4.428  0.1183 -0.0817 -0.4013
  456WAT     H1 2530   2.517   3.042   4.385 -0.1235 -0.4123 -0.4868
  456WAT     H2 2531   2.573   3.024   4.509 -0.0355  0.0581 -0.4575
  456WAT    EPW 2532   2.564   3.003   4.434 -0.3643 -0.1496 -0.3528
  457WAT      O 2533   5.065   6.573   1.337 -0.5679 -0.5826  0.0703
  457WAT     H1 2534   5.148   6.562   1.313 -0.4355 -0.9926  0.7033
  457WAT     H2 2535   5.030   6.615   1.269 -0.0733 -1.2517 -0.6265
  457WAT    EPW 2536   5.072   6.577   1.323  0.3135  0.0977  0.3939
  458WAT      O 2537   7.192   1.559   1.356 -0.1336 -0.8880 -0.2253
  458WAT     H1 2538   7.228   1.521   1.426  2.5686  0.5270 -0.7294
  458WAT     H2 2539   7.203   1.500   1.293 -0.5029 -1.2405  0.0311
  458WAT    EPW 2540   7.199   1.545   1.357  0.3540  0.0522  0.3976
  459WAT      O 2541   3.584   7.175   4.779 -0.2046 -0.0888 -0.3663
  459WAT     H1 2542   3.600   7.141   4.700  1.7759 -1.6015  0.5881
  459WAT     H2 2543   3.552   7.254   4.761 -3.7080 -1.8073 -2.7011
  459WAT    EPW 2544   3.582   7.182   4.764 -0.2246 -0.0842  0.3834
  460WAT      O 2545   7.333   6.804   5.492  0.1955 -0.4307  0.4148
  460WAT     H1 2546   7.260   6.846   5.514 -1.3104 -1.1073 -2.8431
  460WAT     H2 2547   7.309   6.721   5.485  1.0399 -0.5719 -1.4120
  460WAT    EPW 2548   7.319   6.798   5.494 -0.1620 -0.0172 -0.2741
  461WAT      O 2549   2.870   3.456   0.350 -0.2135  0.8813 -0.1182
  461WAT     H1 2550   2.940   3.419   0.314 -1.3278 -0.1559 -1.3107
  461WAT     H2 2551   2.814   3.390   0.360 -0.3899  1.3202  2.5810
  461WAT    EPW 2552   2.872   3.441   0.346  1.1999 -0.3355 -0.2938
  462WAT      O 2553   6.086   1.313   2.120  0.4850  0.2283  0.2253
  462WAT     H1 2554   6.112   1.325   2.038  0.9929  0.4978  0.4225
  462WAT     H2 2555   6.005   1.281   2.111  0.9871 -0.9210 -0.4106
  462WAT    EPW 2556   6.078   1.310   2.107 -0.1328  0.2304 -0.4539
  463WAT      O 2557   6.502   6.581   3.300 -0.1869  0.1302  0.0478
  463WAT     H1 2558   6.424   6.616   3.286  0.2131  0.9453 -0.2284
  463WAT     H2 2559   6.512   6.588   3.387 -0.2918  0.3076  0.0459
  463WAT    EPW 2560   6.492   6.588   3.311 -0.3457  0.5768  0.3928
  464WAT      O 2561   4.546   1.204   0.138  0.4861 -0.1086 -0.1571
  464WAT     H1 2562   4.611   1.241   0.182  0.3565  0.4025 -0.3956
  464WAT     H2 2563   4.478   1.213   0.192  0.2934  0.6512 -0.5132
  464WAT    EPW 2564   4.545   1.210   0.153  0.1168  0.4790 -0.2131
  465WAT      O 2565   0.416   3.426   2.811  0.0811 -0.2035 -0.2257
  465WAT     H1 2566   0.355   3.390   2.760 -0.7844  0.3535  0.3888
  465WAT     H2 2567   0.413   3.511   2.791  0.5542 -0.1463 -0.0765
  465WAT    EPW 2568   0.407   3.433   2.801  0.1062  0.4385 -0.2493
  466WAT      O 2569   7.582   2.118   6.499  0.4052  0.5543 -0.2190
  466WAT     H1 2570   7.545   2.139   6.575  2.3888 -0.0179  0.9797
  466WAT     H2 2571   7.607   2.035   6.511  0.8403  0.4863 -1.4641
  466WAT    EPW 2572   7.580   2.109   6.512  0.1122  0.5741  0.6495
  467WAT      O 2573   0.296   2.678   4.986 -0.0370  0.2622  0.1781
  467WAT     H1 2574   0.259   2.743   5.031 -1.1372 -0.4176  0.3114
  467WAT     H2 2575   0.242   2.611   5.000 -0.6955  0.1153 -2.4548
  467WAT    EPW 2576   0.282   2.678   4.994  0.0858 -0.2269  1.3908
  468WAT      O 2577   7.471   5.165   6.933 -0.3561 -0.2740 -0.4769
  468WAT     H1 2578   7.461   5.135   6.852 -0.7332 -0.1143 -0.4883
  468WAT     H2 2579   7.395   5.147   6.972 -0.7039  0.9198 -0.5661
  468WAT    EPW 2580   7.459   5.158   6.927 -0.3894 -0.1997 -0.1124
  469WAT      O 2581   5.294   6.345   6.214  0.1443  0.4050  0.3007
  469WAT     H1 2582   5.266   6.426   6.228 -0.3591 -0.0640  2.3073
  469WAT     H2 2583   5.373   6.344   6.251  0.6652  0.2833 -0.7738
  469WAT    EPW 2584   5.302   6.357   6.222  0.1168  0.1597  0.3641
  470WAT      O 2585   4.291   6.050   7.085  0.1010  0.4635  0.3082
  470WAT     H1 2586   4.223   6.075   7.134 -1.7441  1.7624 -2.6057
  470WAT     H2 2587   4.254   6.000   7.023  2.2929 -1.1452  0.1720
  470WAT    EPW 2588   4.275   6.046   7.083 -0.0537 -0.3211 -0.0568
  471WAT      O 2589   6.732   5.107   4.914  0.2762 -0.1948  0.4191
  471WAT     H1 2590   6.666   5.159   4.938  1.8960  2.1814  0.0959
  471WAT     H2 2591   6.783   5.104   4.985  1.0847  0.1645 -0.1276
  471WAT    EPW 2592   6.730   5.114   4.928 -0.2721  0.2488  1.1380
  472WAT      O 2593   0.966   3.411   2.465 -0.4140  0.6381 -0.1343
  472WAT     H1 2594   0.883   3.386   2.458 -0.1368  0.2399 -2.8793
  472WAT     H2 2595   1.008   3.338   2.487 -0.5258  0.3070 -0.9879
  472WAT    EPW 2596   0.960   3.397   2.467  0.2646  0.1751  0.1351
  473WAT      O 2597   1.145   7.119   5.184  0.2567  0.1389 -0.2452
  473WAT     H1 2598   1.089   7.160   5.238  0.4696  0.4337 -0.2438
  473WAT     H2 2599   1.185   7.061   5.236 -1.7805 -1.8593 -0.7388
  473WAT    EPW 2600   1.142   7.117   5.200  0.2453 -0.2491  0.4609
  474WAT      O 2601   5.463   6.202   4.025 -0.6715 -0.9578  0.1270
  474WAT     H1 2602   5.482   6.284   4.003  0.6441 -0.5497  2.4218
  474WAT     H2 2603   5.377   6.204   4.039 -0.5960  0.1314  0.5162
  474WAT    EPW 2604   5.453   6.214   4.024 -0.1758 -0.6282  0.2006
  475WAT      O 2605   1.525   6.924   5.775  0.1199 -0.2750  0.0898
  475WAT     H1 2606   1.589   6.865   5.769 -0.5171 -0.9150 -0.5975
  475WAT     H2 2607   1.491   6.925   5.695 -2.3577 -1.8040  1.0098
  475WAT    EPW 2608   1.530   6.916   5.762 -0.1889 -0.3174  0.2948
  476WAT      O 2609   2.464   1.809   7.210  0.8110 -0.3421 -0.1801
  476WAT     H1 2610   2.525   1.777   7.156  0.0247 -0.1551 -1.2221
  476WAT     H2 2611   2.394   1.818   7.158  0.8292  2.5814  0.1852
  476WAT    EPW 2612   2.463   1.805   7.194  0.5775  0.8731 -0.0120
  477WAT      O 2613   3.920   3.948   2.890  0.8065  0.3076  0.5401
  477WAT     H1 2614   3.887   3.887   2.942  0.7095 -0.8446 -0.8351
  477WAT     H2 2615   3.987   3.909   2.851  1.5204  1.4691  0.5308
  477WAT    EPW 2616   3.925   3.933   2.892  0.3201  0.9028  0.1552
  478WAT      O 2617   6.111   5.289   4.852  0.1792  0.1406 -0.0615
  478WAT     H1 2618   6.187   5.258   4.823 -0.1074 -2.6610  1.7810
  478WAT     H2 2619   6.052   5.253   4.799 -0.0163 -0.4723  0.5522
  478WAT    EPW 2620   6.113   5.279   4.840 -0.9292 -0.0780  0.2133
  479WAT      O 2621   2.287   3.471   6.793  0.5606 -0.5582 -0.0919
  479WAT     H1 2622   2.268   3.386   6.802  1.4027 -0.7535 -0.0861
  479WAT     H2 2623   2.257   3.506   6.867  0.2646 -0.8537 -0.0656
  479WAT    EPW 2624   2.280   3.463   6.805  0.0540 -0.3322 -0.3976
  480WAT      O 2625   3.954   1.904   4.299 -0.2504 -0.5990  0.1982
  480WAT     H1 2626   4.014   1.908   4.362  0.7321  1.4492 -0.7716
  480WAT     H2 2627   3.893   1.851   4.332  0.1963  0.4171  2.8951
  480WAT    EPW 2628   3.954   1.897   4.313  0.1003 -0.1205 -0.3540
  481WAT      O 2629   0.928   1.795   5.580 -0.1950 -0.0422  1.0394
  481WAT     H1 2630   0.958   1.847   5.643  2.7535 -0.1785 -0.0532
  481WAT     H2 2631   0.942   1.715   5.611 -0.3919 -0.1316  0.8998
  481WAT    EPW 2632   0.935   1.791   5.594 -0.1454 -0.6750  0.1640
  482WAT      O 2633   1.002   3.805   2.666  0.1105  0.0402  0.3987
  482WAT     H1 2634   0.973   3.742   2.718  0.1266  0.9582  1.5714
  482WAT     H2 2635   0.977   3.780   2.586  0.8297 -1.8238  0.7216
  482WAT    EPW 2636   0.994   3.792   2.662 -0.3611 -0.3526 -0.6316
  483WAT      O 2637   0.831   4.987   0.738  0.7213  0.3172  0.4019
  483WAT     H1 2638   0.763   4.933   0.741  0.2723  0.9299  1.3468
  483WAT     H2 2639   0.797   5.066   0.753  1.4056  0.8575 -0.7166
  483WAT    EPW 2640   0.816   4.991   0.740  0.2541 -0.5181 -0.1113
  484WAT      O 2641   7.127   5.837   5.352  0.0983 -0.0206 -0.6278
  484WAT     H1 2642   7.191   5.856   5.408 -0.0636 -0.7697 -0.1918
  484WAT     H2 2643   7.132   5.902   5.294  0.7316  0.3674 -0.1529
  484WAT    EPW 2644   7.137   5.850   5.351  0.2332  0.2843  0.0306
  485WAT      O 2645   4.143   4.859   5.560 -0.2173  0.3813 -0.1224
  485WAT     H1 2646   4.064   4.840   5.528 -0.3533  0.8288 -0.0623
  485WAT     H2 2647   4.181   4.905   5.497  1.0191 -2.0291 -1.2648
  485WAT    EPW 2648   4.137   4.863   5.546  0.5167  0.3249  0.0143
  486WAT      O 2649   4.415   4.668   2.477  0.0164  0.1532 -0.4051
  486WAT     H1 2650   4.401   4.632   2.555 -0.5443  0.1900 -0.4880
  486WAT     H2 2651   4.420   4.754   2.494 -1.8514  0.3447 -0.6239
  486WAT    EPW 2652   4.414   4.675   2.491  0.2769 -0.3281  0.2392
  487WAT      O 2653   5.965   6.042   7.347  0.0976 -0.0216  0.4812
  487WAT     H1 2654   6.052   6.039   7.341  0.2101  2.2922 -0.0540
  487WAT     H2 2655   5.938   6.022   7.266  0.2020  0.2206  0.3833
  487WAT    EPW 2656   5.974   6.039   7.334  0.1828 -0.0163 -0.1731
  488WAT      O 2657   4.571   2.538   5.682 -0.0039  0.0512 -0.3468
  488WAT     H1 2658   4.548   2.619   5.705  1.1724 -0.1996  1.9302
  488WAT     H2 2659   4.517   2.487   5.728 -0.1888 -0.4826 -1.1316
  488WAT    EPW 2660   4.559   2.542   5.692 -0.3307 -0.5601  0.6867
  489WAT      O 2661   6.213   3.566   3.247  0.3526 -0.3446 -0.3755
  489WAT     H1 2662   6.227   3.628   3.307 -0.5271  0.1783 -0.6775
  489WAT     H2 2663   6.181   3.611   3.179  2.1906 -0.7890 -1.6103
  489WAT    EPW 2664   6.210   3.582   3.245  0.4958 -0.1291 -0.0471
  490WAT      O 2665   4.727   3.954   4.669 -0.0221  0.4374  0.4493
  490WAT     H1 2666   4.802   3.914   4.648 -0.5347  0.1479 -1.0104
  490WAT     H2 2667   4.685   3.894   4.717  1.1294  1.0501  2.3053
  490WAT    EPW 2668   4.732   3.939   4.673 -0.1251  0.2885  0.2305
  491WAT      O 2669   6.065   1.873   2.272  0.6028 -0.3825 -0.5070
  491WAT     H1 2670   6.057   1.954   2.241 -1.3995  0.0450  0.9432
  491WAT     H2 2671   6.108   1.884   2.347 -1.5219 -0.2963  0.7789
  491WAT    EPW 2672   6.070   1.886   2.279  0.5005  0.3647 -0.1524
  492WAT      O 2673   4.625   3.094   5.202  0.0632  0.2116 -0.4648
  492WAT     H1 2674   4.572   3.108   5.134  0.4779  1.7596 -0.5213
  492WAT     H2 2675   4.704   3.113   5.170  0.3653  0.1016  0.2081
  492WAT    EPW 2676   4.629   3.099   5.187  0.3338  0.1519 -0.2068
  493WAT      O 2677   6.847   0.114   4.396 -0.5884  0.1846  0.1075
  493WAT     H1 2678   6.853   0.087   4.478 -0.3206 -0.7079 -0.1910
  493WAT     H2 2679   6.914   0.074   4.356 -1.6138 -0.6569 -0.8609
  493WAT    EPW 2680   6.857   0.104   4.402  0.2550  0.0735  0.2800
  494WAT      O 2681   1.222   3.364   4.163 -0.0340  0.2764 -0.0178
  494WAT     H1 2682   1.224   3.451   4.162  1.7133  0.4087  2.7191
  494WAT     H2 2683   1.138   3.346   4.179 -0.1901  1.5698  0.7784
  494WAT    EPW 2684   1.210   3.374   4.165  0.4464  1.0568 -0.0810
  495WAT      O 2685   0.379   4.957   3.576  0.3387  0.1417 -0.1135
  495WAT     H1 2686   0.386   5.016   3.640 -1.4007 -0.4809  0.7302
  495WAT     H2 2687   0.378   4.881   3.619 -2.6220 -0.2174 -0.6204
  495WAT    EPW 2688   0.380   4.955   3.592  0.6809 -0.4670  0.0695
  496WAT      O 2689   2.310   7.133   2.151  0.3826 -0.3826 -0.0662
  496WAT     H1 2690   2.277   7.213   2.139  2.5848  0.8217  1.2378
  496WAT     H2 2691   2.272   7.107   2.225 -0.6311 -0.7638 -0.6918
  496WAT    EPW 2692   2.299   7.141   2.160  0.1590 -0.1977 -0.0639
  497WAT      O 2693   1.933   6.464   4.170 -0.1919 -0.1797 -0.1182
  497WAT     H1 2694   1.963   6.511   4.238 -1.8655 -1.8789  1.9620
  497WAT     H2 2695   1.984   6.393   4.170 -0.1064 -0.1233 -0.7677
  497WAT    EPW 2696   1.945   6.461   4.180 -0.0437  0.1183 -0.9223
  498WAT      O 2697   2.674   1.338   2.793  0.0828  0.0790  0.5003
  498WAT     H1 2698   2.720   1.265   2.777  1.3494  1.1508 -1.0818
  498WAT     H2 2699   2.706   1.396   2.736 -1.8751  1.4924  0.7141
  498WAT    EPW 2700   2.686   1.336   2.782  0.3141 -0.2547  0.7678
  499WAT      O 2701   6.889   3.366   4.226 -0.0895  0.5014  0.0854
  499WAT     H1 2702   6.815   3.414   4.223  0.1118  0.9298  1.1733
  499WAT     H2 2703   6.920   3.370   4.145 -1.1996  0.4178 -0.3646
  499WAT    EPW 2704   6.882   3.374   4.214 -0.2084 -0.1519 -0.4531
  500WAT      O 2705   4.369   3.828   2.338  0.1796 -0.0012 -0.0294
  500WAT     H1 2706   4.410   3.752   2.350 -0.4283 -0.5864 -1.5299
  500WAT     H2 2707   4.414   3.883   2.390  3.8689 -0.2200 -2.5637
  500WAT    EPW 2708   4.382   3.825   2.348 -0.5571 -0.0885  0.1159
  501WAT      O 2709   3.955   6.357   5.011  0.1767  0.5642  0.1599
  501WAT     H1 2710   3.924   6.381   5.089 -0.8066 -1.2475  0.3960
  501WAT     H2 2711   3.969   6.271   5.020  0.6856  0.4385 -1.4625
  501WAT    EPW 2712   3.952   6.348   5.024 -0.3558 -0.2485  0.5971
  502WAT      O 2713   2.292   7.352   4.801  0.7912  0.3747  0.2742
  502WAT     H1 2714   2.365   7.314   4.771  0.5542 -0.7990  1.0888
  502WAT     H2 2715   2.312   7.436   4.803  0.8422  0.5701 -3.0414
  502WAT    EPW 2716   2.306   7.359   4.797 -0.8860 -0.2256 -0.9770
  503WAT      O 2717   1.801   2.149   0.522 -0.4003 -0.4462 -0.0834
  503WAT     H1 2718   1.736   2.207   0.523 -1.0939 -1.2205  0.3755
  503WAT     H2 2719   1.859   2.185   0.467 -1.3114  0.1441 -0.6945
  503WAT    EPW 2720   1.800   2.163   0.514 -0.0469 -0.2594  0.1062
  504WAT      O 2721   1.952   0.236   6.530  0.1198 -0.1638  0.1794
  504WAT     H1 2722   1.918   0.297   6.478  3.5579  1.4609 -0.4457
  504WAT     H2 2723   1.969   0.280   6.604  0.8880 -0.8611  0.4250
  504WAT    EPW 2724   1.950   0.252   6.533 -0.2532 -0.6492 -0.5916
  505WAT      O 2725   1.750   0.621   1.269 -0.0920 -0.0088 -0.2627
  505WAT     H1 2726   1.779   0.602   1.188 -1.5226 -1.6458 -0.4451
  505WAT     H2 2727   1.741   0.542   1.306 -0.1523  0.6862  1.2731
  505WAT    EPW 2728   1.753   0.606   1.262  0.1181  0.0444  0.2285
  506WAT      O 2729   7.514   5.580   6.933 -0.1201 -0.4006 -0.0958
  506WAT     H1 2730   7.511   5.666   6.922 -0.7950 -0.3351  0.5154
  506WAT     H2 2731   7.549   5.551   6.858 -2.1780  0.1967 -1.3805
  506WAT    EPW 2732   7.519   5.588   6.920  0.2949 -0.1738 -0.3740
  507WAT      O 2733   6.138   0.499   0.086  0.3156  0.2637 -0.4411
  507WAT     H1 2734   6.128   0.583   0.106 -2.8147 -0.2708  0.9324
  507WAT     H2 2735   6.162   0.499   0.002  0.1143  2.5099 -0.5342
  507WAT    EPW 2736   6.140   0.511   0.077 -0.1353  0.4581 -0.2948
  508WAT      O 2737   3.064   0.205   4.248  0.8299  0.5579 -0.3447
  508WAT     H1 2738   3.005   0.170   4.301  1.0423  1.4565  0.5016
  508WAT     H2 2739   3.018   0.226   4.177  0.5203 -0.5462 -0.4867
  508WAT    EPW 2740   3.049   0.203   4.245  0.1593  0.5189  0.2333
  509WAT      O 2741   2.538   7.262   4.226 -0.4163  0.6245  0.2698
  509WAT     H1 2742   2.597   7.253   4.290 -0.9932  0.4744  0.7956
  509WAT     H2 2743   2.580   7.233   4.155 -0.4832 -1.3400  0.9707
  509WAT    EPW 2744   2.553   7.256   4.225 -0.2926 -0.2811  0.5433
  510WAT      O 2745   6.520   1.985   1.405 -0.3954  0.1134 -0.0246
  510WAT     H1 2746   6.436   2.008   1.396 -0.7148 -0.3403  1.5220
  510WAT     H2 2747   6.531   1.925   1.343 -0.8825  0.9610 -0.9699
  510WAT    EPW 2748   6.509   1.980   1.394 -0.0153  0.6900 -0.6074
  511WAT      O 2749   6.479   7.106   7.472 -0.1355  0.5969  0.3430
  511WAT     H1 2750   6.495   7.117   7.557 -0.6502  0.3752  0.4781
  511WAT     H2 2751   6.449   7.184   7.447 -1.0012  0.3719  0.6216
  511WAT    EPW 2752   6.477   7.119   7.481 -0.5118  0.6717  0.2184
  512WAT      O 2753   2.049   7.340   3.958 -0.2511 -0.0819 -0.3659
  512WAT     H1 2754   2.088   7.408   3.996 -0.2842  0.2155 -0.8492
  512WAT     H2 2755   1.967   7.344   3.988 -0.0063 -0.4856  0.3606
  512WAT    EPW 2756   2.042   7.351   3.968  0.1820 -0.1734  0.4180
  513WAT      O 2757   7.121   3.931   6.403  0.5529 -0.1659 -0.1791
  513WAT     H1 2758   7.111   4.016   6.389 -1.2206 -0.7295 -3.5924
  513WAT     H2 2759   7.063   3.914   6.466 -4.1076  0.4266 -3.7472
  513WAT    EPW 2760   7.111   3.941   6.410 -0.8353  0.8354 -0.1929
  514WAT      O 2761   6.616   5.148   5.208  0.0678  0.7512  0.0368
  514WAT     H1 2762   6.581   5.199   5.147  0.0849  2.7629  1.5791
  514WAT     H2 2763   6.695   5.127   5.175 -0.2009  1.1975 -0.9046
  514WAT    EPW 2764   6.623   5.152   5.194  0.8051 -0.0349  0.0020
  515WAT      O 2765   3.720   7.269   6.898  0.4320 -0.4946 -0.2563
  515WAT     H1 2766   3.791   7.313   6.873 -0.9109  1.5647 -0.6971
  515WAT     H2 2767   3.672   7.265   6.825 -1.2786  1.0345  0.7046
  515WAT    EPW 2768   3.723   7.275   6.884 -0.1899  0.2641 -0.1044
  516WAT      O 2769   3.352   3.754   6.848  0.5653  0.1017 -0.1515
  516WAT     H1 2770   3.382   3.673   6.842  2.2464  0.5538  1.4303
  516WAT     H2 2771   3.269   3.744   6.874  0.2609 -1.1021 -1.4836
  516WAT    EPW 2772   3.344   3.741   6.851  0.6708 -0.1276 -0.3812
  517WAT      O 2773   6.186   3.699   5.484  0.3346  0.8330  0.3586
  517WAT     H1 2774   6.114   3.738   5.514 -1.9638 -3.4023  1.1022
  517WAT     H2 2775   6.220   3.663   5.556  1.5625  0.3326 -0.4556
  517WAT    EPW 2776   6.181   3.700   5.499  0.5444  0.3998 -0.0943
  518WAT      O 2777   5.765   3.640   5.572  0.3516  0.8809  0.1304
  518WAT     H1 2778   5.837   3.591   5.563 -0.4335  0.0572 -2.4166
  518WAT     H2 2779   5.716   3.618   5.504 -2.8393  0.6795  2.2671
  518WAT    EPW 2780   5.768   3.630   5.561 -0.2894 -0.0702  0.9246
  519WAT      O 2781   6.532   2.111   0.131 -0.4735  0.1448 -0.1375
  519WAT     H1 2782   6.555   2.041   0.084 -0.8322  0.2385 -0.4551
  519WAT     H2 2783   6.551   2.088   0.213  1.4630  0.4876 -0.4339
  519WAT    EPW 2784   6.538   2.098   0.136 -0.0066 -0.7115  0.3559
  520WAT      O 2785   6.060   0.768   7.070 -0.0367 -0.0628 -0.0475
  520WAT     H1 2786   6.042   0.802   7.148 -0.2525 -1.2301  0.4383
  520WAT     H2 2787   6.111   0.700   7.088  2.3509  1.3161 -1.1723
  520WAT    EPW 2788   6.065   0.763   7.084 -0.4752  0.1615 -0.6195
  521WAT      O 2789   3.664   7.136   1.470  0.5998  0.7294  0.0265
  521WAT     H1 2790   3.652   7.184   1.399 -1.0936  0.7640  0.2989
  521WAT     H2 2791   3.662   7.054   1.439 -2.5464  0.6095  0.2209
  521WAT    EPW 2792   3.662   7.131   1.455  0.5804  0.0866 -0.0309
  522WAT      O 2793   2.979   5.795   0.964 -0.9816  0.1770  0.6865
  522WAT     H1 2794   2.917   5.738   0.987 -1.4957  1.1089  1.6801
  522WAT     H2 2795   3.020   5.813   1.039 -0.2181  0.4109  0.2274
  522WAT    EPW 2796   2.976   5.789   0.978 -0.6528  0.8724  0.1077
  523WAT      O 2797   4.684   1.839   4.537 -0.0695 -0.5427 -0.3907
  523WAT     H1 2798   4.611   1.795   4.553  0.8091 -2.1466 -0.6522
  523WAT     H2 2799   4.729   1.833   4.612  0.5297 -1.0538 -0.7826
  523WAT    EPW 2800   4.680   1.832   4.550  0.3649 -0.0468 -0.1288
  524WAT      O 2801   1.162   0.148   2.193  0.5924  0.2972  0.4641
  524WAT     H1 2802   1.076   0.152   2.183  0.5374 -1.0435  0.1681
  524WAT     H2 2803   1.190   0.108   2.121  1.6329  1.9130 -0.0689
  524WAT    EPW 2804   1.154   0.143   2.181 -0.1335 -0.3489 -0.2013
  525WAT      O 2805   3.779   3.253   1.750  0.0171  0.4162  0.2113
  525WAT     H1 2806   3.816   3.178   1.774  0.2502  0.4483 -0.0471
  525WAT     H2 2807   3.846   3.308   1.740 -0.0839  0.4344 -0.4010
  525WAT    EPW 2808   3.794   3.250   1.752  0.4921  0.6249 -0.1598
  526WAT      O 2809   4.696   5.099   5.734  0.4065 -0.5588 -0.0952
  526WAT     H1 2810   4.705   5.055   5.660  0.8403  0.7803 -0.8618
  526WAT     H2 2811   4.619   5.139   5.725  1.1608  0.8334 -0.5028
  526WAT    EPW 2812   4.686   5.098   5.722  0.5055  0.4517 -0.3255
  527WAT      O 2813   1.013   5.913   6.908 -0.2102  0.2071  0.0248
  527WAT     H1 2814   1.039   5.981   6.861 -3.3766  1.3713 -0.2800
  527WAT     H2 2815   1.018   5.941   6.991  0.6866 -0.0636  0.0702
  527WAT    EPW 2816   1.018   5.927   6.914  0.1331 -0.1941  0.3843
  528WAT      O 2817   5.924   2.344   2.578 -0.3391 -0.3410  0.2769
  528WAT     H1 2818   5.869   2.352   2.645 -0.6172  1.3667 -0.1105
  528WAT     H2 2819   5.903   2.267   2.542 -3.2786  0.7152 -0.5257
  528WAT    EPW 2820   5.913   2.334   2.582 -0.0062  0.4234 -0.0511
  529WAT      O 2821   4.121   4.884   1.774  0.3931  0.5368  0.8168
  529WAT     H1 2822   4.200   4.874   1.808  0.8916 -1.1201 -0.7123
  529WAT     H2 2823   4.067   4.872   1.843  1.3859 -1.2284  1.3372
  529WAT    EPW 2824   4.125   4.881   1.789 -0.5928  0.0370  0.2013
  530WAT      O 2825   4.366   0.182   2.415  0.0528  0.0169 -0.3011
  530WAT     H1 2826   4.414   0.151   2.350  0.9968 -0.8211  0.7491
  530WAT     H2 2827   4.295   0.215   2.376  0.7128 -0.2377 -1.7401
  530WAT    EPW 2828   4.363   0.182   2.400 -0.1096  1.0273 -0.7800
  531WAT      O 2829   1.739   1.728   5.806 -0.7324 -0.2144  0.5147
  531WAT     H1 2830   1.664   1.692   5.833 -0.0625 -0.5292  2.0331
  531WAT     H2 2831   1.763   1.778   5.873 -0.3536  1.1309 -0.5776
  531WAT    EPW 2832   1.731   1.730   5.820  0.0141 -0.0685 -0.0786
  532WAT      O 2833   0.589   7.001   6.151  0.7198  0.2899  0.3319
  532WAT     H1 2834   0.560   6.924   6.124  0.6053  0.0393  1.1443
  532WAT     H2 2835   0.667   7.008   6.114 -0.3398  1.0125 -1.9744
  532WAT    EPW 2836   0.596   6.991   6.142  0.5934  0.4555 -0.4464
  533WAT      O 2837   1.487   7.089   0.417  0.0912  0.1107  0.2853
  533WAT     H1 2838   1.444   7.079   0.492  3.0628  1.2896  2.3429
  533WAT     H2 2839   1.518   7.010   0.400  1.3706  0.2550  1.7137
  533WAT    EPW 2840   1.485   7.076   0.426 -0.5168  0.4835 -0.3099
  534WAT      O 2841   5.556   4.613   4.365 -0.3501  0.4111 -0.7987
  534WAT     H1 2842   5.541   4.682   4.313 -0.0299 -0.2546 -1.8097
  534WAT     H2 2843   5.616   4.642   4.421 -0.8661  1.2142 -0.6400
  534WAT    EPW 2844   5.563   4.627   4.365 -0.2985  0.2633  0.3468
  535WAT      O 2845   4.430   0.639   2.199  0.2243  0.1562  0.5120
  535WAT     H1 2846   4.461   0.655   2.119 -2.4639  0.4419 -0.5775
  535WAT     H2 2847   4.500   0.645   2.250  1.8977  0.7478 -1.7191
  535WAT    EPW 2848   4.445   0.643   2.194  0.0302  0.2971  0.3498
  536WAT      O 2849   3.808   7.268   4.941 -0.5458  0.0121 -0.0858
  536WAT     H1 2850   3.739   7.258   4.889  1.1552 -0.1018 -2.4961
  536WAT     H2 2851   3.793   7.345   4.980 -2.3882 -0.4139  0.1223
  536WAT    EPW 2852   3.796   7.278   4.939 -0.5088 -0.3111  0.6144
  537WAT      O 2853   2.804   3.030   3.860  0.0550  0.0601  0.4871
  537WAT     H1 2854   2.810   2.975   3.793  0.9625  0.3973  0.2676
  537WAT     H2 2855   2.883   3.025   3.898 -0.4155 -0.0676  1.4936
  537WAT    EPW 2856   2.817   3.021   3.856 -0.0622  0.1639 -0.3352
  538WAT      O 2857   0.572   7.383   1.485 -0.2051  0.3330  0.1670
  538WAT     H1 2858   0.517   7.450   1.478 -0.3448  0.2096  0.1028
  538WAT     H2 2859   0.527   7.322   1.528  0.3225  0.7261  1.3523
  538WAT    EPW 2860   0.557   7.384   1.491  0.1682  0.3684 -0.0553
  539WAT      O 2861   3.614   2.236   4.882 -0.1884  0.4611 -0.2368
  539WAT     H1 2862   3.559   2.189   4.931 -1.3300  0.9574 -0.9937
  539WAT     H2 2863   3.561   2.284   4.832  0.9465  1.2834 -0.6966
  539WAT    EPW 2864   3.598   2.236   4.882 -0.0019  0.3613  0.0000
  540WAT      O 2865   6.153   3.469   4.316 -0.1898  0.5498  0.1643
  540WAT     H1 2866   6.104   3.431   4.378  0.0275 -0.3123 -0.1762
  540WAT     H2 2867   6.117   3.548   4.308 -0.5987  0.4601  0.9635
  540WAT    EPW 2868   6.140   3.475   4.324  0.1014  0.4078  0.3049
  541WAT      O 2869   1.666   6.635   5.881 -0.0424 -0.2800 -0.1949
  541WAT     H1 2870   1.753   6.640   5.875  0.0141  1.0624  1.2245
  541WAT     H2 2871   1.652   6.553   5.907  0.9775  0.0869  1.6541
  541WAT    EPW 2872   1.677   6.623   5.884 -0.2313 -0.4600  0.1307
  542WAT      O 2873   6.440   5.641   1.882  0.3576 -0.1773 -0.9989
  542WAT     H1 2874   6.519   5.645   1.845  0.5399 -0.2488 -0.6195
  542WAT     H2 2875   6.388   5.682   1.824  0.8875  1.0507 -0.6333
  542WAT    EPW 2876   6.444   5.647   1.868  0.0704 -0.2685  0.4900
  543WAT      O 2877   1.543   6.674   0.108  0.5000  0.1593  0.3328
  543WAT     H1 2878   1.498   6.601   0.121 -1.0081  0.7808 -1.1691
  543WAT     H2 2879   1.589   6.658   0.036  3.5560 -0.7938  2.2914
  543WAT    EPW 2880   1.543   6.661   0.100  0.0295  0.4186  0.2135
  544WAT      O 2881   7.374   5.013   1.271 -0.2756  0.3242  0.7525
  544WAT     H1 2882   7.309   4.998   1.215  0.8398  0.8348 -0.7410
  544WAT     H2 2883   7.375   5.100   1.279  1.6698  0.5425 -1.1249
  544WAT    EPW 2884   7.365   5.024   1.264  0.3308 -0.3140 -0.1841
  545WAT      O 2885   6.059   4.849   0.284  0.2038  0.3800 -0.7891
  545WAT     H1 2886   6.076   4.764   0.287 -0.0420  0.3461 -0.3328
  545WAT     H2 2887   6.108   4.877   0.217 -0.3935 -0.2766 -1.5271
  545WAT    EPW 2888   6.068   4.841   0.274 -0.0314 -0.1115 -0.1079
  546WAT      O 2889   4.620   7.556   0.312  0.3091 -0.3245  0.3546
  546WAT     H1 2890   4.649   7.635   0.288  0.6663  0.2559  2.4459
  546WAT     H2 2891   4.688   7.523   0.356  0.0871 -1.7463 -0.3294
  546WAT    EPW 2892   4.635   7.563   0.315  0.0538  0.3196  0.4008
  547WAT      O 2893   6.839   3.252   5.687  0.2993  0.0893 -0.0057
  547WAT     H1 2894   6.823   3.330   5.724  1.4989  0.1248  0.5023
  547WAT     H2 2895   6.915   3.264   5.646 -1.2174  0.2014 -3.0342
  547WAT    EPW 2896   6.848   3.265   5.686 -0.0578  0.7529 -0.0698
  548WAT      O 2897   2.959   2.234   3.905  0.0527  0.0043  0.6226
  548WAT     H1 2898   3.021   2.222   3.965 -0.0568 -1.8923  0.4178
  548WAT     H2 2899   3.002   2.227   3.829 -0.4014 -1.4300  0.4781
  548WAT    EPW 2900   2.974   2.232   3.903  0.0830  0.2423  0.3020
  549WAT      O 2901   5.610   1.417   2.695 -0.2333 -0.2180 -0.0606
  549WAT     H1 2902   5.559   1.480   2.728  1.2484  1.0614 -0.0642
  549WAT     H2 2903   5.660   1.394   2.763  2.0045  1.5650 -0.9594
  549WAT    EPW 2904   5.610   1.423   2.710 -1.0251  0.2039 -0.4763
  550WAT      O 2905   7.130   1.875   2.288 -0.4486  0.3381  0.6005
  550WAT     H1 2906   7.132   1.791   2.312 -0.7776  0.3747  0.7655
  550WAT     H2 2907   7.070   1.877   2.225 -1.2779  0.6419  1.3822
  550WAT    EPW 2908   7.122   1.863   2.282  0.9345 -0.6932  0.1824
  551WAT      O 2909   2.209   7.477   6.433 -0.2383 -0.3813  0.3966
  551WAT     H1 2910   2.184   7.554   6.399 -0.2608 -0.4934  0.1595
  551WAT     H2 2911   2.270   7.449   6.377  0.0683 -0.3421  0.7072
  551WAT    EPW 2912   2.214   7.484   6.420 -0.3300  0.0925 -0.3780
  552WAT      O 2913   0.944   1.898   6.107  0.0009  0.0460  0.1135
  552WAT     H1 2914   1.030   1.888   6.109  0.1112  0.9334 -0.0451
  552WAT     H2 2915   0.930   1.947   6.036 -0.7025 -0.7112 -0.2895
  552WAT    EPW 2916   0.954   1.903   6.097  0.5079  0.0194 -0.1018
  553WAT      O 2917   6.247   3.744   3.492 -0.0300 -0.2903  0.3448
  553WAT     H1 2918   6.293   3.739   3.566 -0.0735  1.7932  0.5686
  553WAT     H2 2919   6.306   3.764   3.432 -0.2488 -0.2418  0.1432
  553WAT    EPW 2920   6.262   3.746   3.494  0.5683  0.6483  0.3553
  554WAT      O 2921   4.131   4.483   1.752  0.1777 -0.3439  0.4339
  554WAT     H1 2922   4.160   4.436   1.685  1.5340 -0.7589  1.2568
  554WAT     H2 2923   4.123   4.424   1.816 -0.3255  0.1672  0.8444
  554WAT    EPW 2924   4.134   4.467   1.752  0.3506 -0.0883 -0.1706
  555WAT      O 2925   2.216   2.628   1.684  1.3825  0.1391  0.1163
  555WAT     H1 2926   2.224   2.566   1.745 -0.8220 -1.4299 -1.0437
  555WAT     H2 2927   2.142   2.669   1.707 -0.7383 -1.8749 -2.4906
  555WAT    EPW 2928   2.206   2.625   1.696  0.0435  0.6250  0.5223
  556WAT      O 2929   1.555   2.859   6.803 -0.0956  0.2521  0.1112
  556WAT     H1 2930   1.535   2.809   6.735  0.8022 -0.7980  0.5820
  556WAT     H2 2931   1.537   2.809   6.872 -2.4750  1.8554  0.7603
  556WAT    EPW 2932   1.550   2.844   6.804  0.7678 -0.2665 -0.3563
  557WAT      O 2933   3.570   2.887   6.114  0.4254  0.1016 -0.0057
  557WAT     H1 2934   3.560   2.967   6.147  1.2800  0.1473  0.1607
  557WAT     H2 2935   3.641   2.856   6.154  1.0481 -0.1277 -1.2229
  557WAT    EPW 2936   3.579   2.894   6.125  0.4542  0.1167 -0.4331
  558WAT      O 2937   2.597   0.806   0.790 -0.2249 -0.6432  0.6344
  558WAT     H1 2938   2.649   0.738   0.805  0.3040 -0.1934  0.8757
  558WAT     H2 2939   2.561   0.822   0.868  2.0026  1.2644  1.3902
  558WAT    EPW 2940   2.599   0.798   0.804  0.0017 -0.1685  0.6337
  559WAT      O 2941   0.189   6.604   2.424 -0.1228 -0.3496 -0.1904
  559WAT     H1 2942   0.106   6.577   2.425 -0.4027  0.5088  0.7730
  559WAT     H2 2943   0.185   6.684   2.391  0.5178 -0.8177 -1.4867
  559WAT    EPW 2944   0.176   6.612   2.420 -0.5165  0.2056  0.0159
  560WAT      O 2945   5.084   4.691   7.295 -0.4708  0.1312 -0.0003
  560WAT     H1 2946   5.045   4.737   7.358 -0.7359 -1.8463  1.3674
  560WAT     H2 2947   5.129   4.631   7.339  0.4525 -0.4701 -1.6954
  560WAT    EPW 2948   5.085   4.689   7.311  0.2807 -0.5915 -0.8627
  561WAT      O 2949   7.593   7.354   5.677  0.3948 -0.8091  0.2690
  561WAT     H1 2950   7.607   7.409   5.611  1.5242 -2.4992 -0.9754
  561WAT     H2 2951   7.517   7.317   5.658 -0.1658 -0.0257  0.8974
  561WAT    EPW 2952   7.584   7.357   5.665  0.3394  0.1551 -0.4450
  562WAT      O 2953   3.369   1.121   5.861 -0.2176 -0.1208  0.1491
  562WAT     H1 2954   3.372   1.155   5.941  2.0414 -0.9996  0.5016
  562WAT     H2 2955   3.376   1.190   5.808 -0.9594  0.3929  0.7129
  562WAT    EPW 2956   3.370   1.136   5.865  0.4325  0.1004  0.6538
  563WAT      O 2957   5.717   3.316   4.677 -0.5566 -0.0244  0.0167
  563WAT     H1 2958   5.741   3.384   4.726 -1.3514 -1.1844  2.1308
  563WAT     H2 2959   5.642   3.342   4.641 -0.4414  0.5241  0.1698
  563WAT    EPW 2960   5.709   3.330   4.679  0.1643  0.0573  0.3231
  564WAT      O 2961   4.069   7.520   3.751 -0.1567  0.4911 -0.7013
  564WAT     H1 2962   4.136   7.514   3.695  2.2598 -3.3195  2.1419
  564WAT     H2 2963   4.001   7.495   3.703  1.2667  0.0267 -2.5974
  564WAT    EPW 2964   4.069   7.515   3.735  0.2110  0.4305 -0.6781
  565WAT      O 2965   3.266   6.471   4.257  0.2443  0.5799 -0.0052
  565WAT     H1 2966   3.337   6.420   4.259 -0.4505 -0.3904  0.6705
  565WAT     H2 2967   3.222   6.443   4.187 -0.7319 -0.6228  1.0406
  565WAT    EPW 2968   3.270   6.459   4.247  0.3422  0.4609 -0.6438
  566WAT      O 2969   6.466   7.445   1.190  0.9144  0.0921 -0.5768
  566WAT     H1 2970   6.421   7.488   1.128 -2.9898  0.3892  2.0926
  566WAT     H2 2971   6.432   7.364   1.187  1.1609 -0.0759  0.6400
  566WAT    EPW 2972   6.454   7.439   1.180 -0.3162 -0.0059 -0.5223
  567WAT      O 2973   6.588   3.402   3.840  0.5160  0.3349  0.7778
  567WAT     H1 2974   6.670   3.375   3.842  0.3467 -0.9291 -2.5270
  567WAT     H2 2975   6.542   3.331   3.863  0.3163  0.3193  0.3522
  567WAT    EPW 2976   6.593   3.388   3.843 -0.6300 -0.0880  0.2015
  568WAT      O 2977   6.490   2.261   1.336  0.1954  0.4871 -0.2548
  568WAT     H1 2978   6.546   2.195   1.341  0.5619  0.5715 -2.3649
  568WAT     H2 2979   6.525   2.322   1.388  0.4741 -0.4946  0.7617
  568WAT    EPW 2980   6.503   2.261   1.345 -0.0971 -0.8029 -0.1573
  569WAT      O 2981   0.488   0.741   7.284  0.3622 -0.0725 -0.4704
  569WAT     H1 2982   0.508   0.756   7.200 -1.1717 -0.5542 -0.9561
  569WAT     H2 2983   0.485   0.821   7.319  0.9701  0.1351 -0.8881
  569WAT    EPW 2984   0.490   0.755   7.277  0.3167  0.3431  0.1740
  570WAT      O 2985   1.341   1.881   7.118  0.0132  0.4264  0.3497
  570WAT     H1 2986   1.256   1.891   7.131 -0.4969 -1.0302 -1.4189
  570WAT     H2 2987   1.356   1.799   7.144  0.6331  0.3040 -0.3569
  570WAT    EPW 2988   1.331   1.870   7.124 -0.0712  0.5334 -0.8214
  571WAT      O 2989   7.432   7.393   2.673  0.0253 -0.0406  0.6098
  571WAT     H1 2990   7.448   7.342   2.603 -1.3516 -1.3441  1.1953
  571WAT     H2 2991   7.479   7.464   2.656 -0.0431 -0.4108 -1.5319
  571WAT    EPW 2992   7.442   7.396   2.660 -0.5449  0.3512  0.0255
  572WAT      O 2993   5.850   4.983   0.654 -0.0850  0.1543 -0.1709
  572WAT     H1 2994   5.764   4.985   0.643 -0.3600 -2.4967  0.7807
  572WAT     H2 2995   5.881   5.024   0.583 -2.0896 -2.0882 -2.5074
  572WAT    EPW 2996   5.842   4.990   0.642  0.0235 -0.3037  0.4823
  573WAT      O 2997   0.281   5.643   3.825 -0.2881 -0.5836  0.2610
  573WAT     H1 2998   0.195   5.636   3.813 -0.2554 -0.4460 -0.0811
  573WAT     H2 2999   0.294   5.608   3.904 -0.5538 -1.3509 -0.0198
  573WAT    EPW 3000   0.270   5.636   3.835  0.3584 -0.8677 -0.3685
  574WAT      O 3001   6.264   0.373   5.152 -0.1091 -0.0133 -0.0010
  574WAT     H1 3002   6.209   0.431   5.187 -1.9930  0.1936 -2.9213
  574WAT     H2 3003   6.321   0.422   5.108 -2.3794 -0.0462 -3.4514
  574WAT    EPW 3004   6.264   0.389   5.151 -0.2703  0.3304  0.2683
  575WAT      O 3005   3.562   6.611   7.354  0.8764  0.2981  0.2266
  575WAT     H1 3006   3.543   6.549   7.412  0.4805  0.0919 -0.1215
  575WAT     H2 3007   3.516   6.680   7.382 -0.0801 -0.0796 -0.3795
  575WAT    EPW 3008   3.552   6.612   7.367  0.4463  0.3493 -0.3459
  576WAT      O 3009   0.242   1.080   4.694  0.5490 -0.0580  0.1964
  576WAT     H1 3010   0.188   1.058   4.759  1.7139 -0.2573  1.1282
  576WAT     H2 3011   0.190   1.122   4.638 -0.8935 -1.5276  0.3400
  576WAT    EPW 3012   0.226   1.083   4.695 -0.2423 -0.7382  0.0717
  577WAT      O 3013   0.160   0.464   4.077 -0.2232  0.6662  0.1748
  577WAT     H1 3014   0.193   0.541   4.051 -0.3180  0.3647 -0.8770
  577WAT     H2 3015   0.084   0.459   4.034  0.2285 -0.4439 -0.5367
  577WAT    EPW 3016   0.153   0.475   4.067  0.7790  0.4859 -0.0750
  578WAT      O 3017   5.552   2.065   5.855 -0.4991  0.0310 -0.4626
  578WAT     H1 3018   5.622   2.116   5.843 -1.3280  0.9569 -1.6014
  578WAT     H2 3019   5.489   2.121   5.875 -0.9202 -0.8062  0.6527
  578WAT    EPW 3020   5.553   2.080   5.856 -0.9184 -0.1428 -0.2443
  579WAT      O 3021   6.633   2.750   0.163 -0.4470 -0.4211 -0.2174
  579WAT     H1 3022   6.705   2.703   0.182 -1.0695 -1.8312 -1.1716
  579WAT     H2 3023   6.628   2.806   0.229  0.9504 -0.9962  0.4271
  579WAT    EPW 3024   6.643   2.751   0.176  0.2235  0.2150  0.1902
  580WAT      O 3025   3.383   6.091   3.720  0.5173 -0.4668 -0.8960
  580WAT     H1 3026   3.424   6.151   3.671 -2.0785  1.1638 -1.2665
  580WAT     H2 3027   3.318   6.064   3.669 -1.4973  0.3174  1.0828
  580WAT    EPW 3028   3.379   6.096   3.705  0.5964  0.3110 -0.1036
  581WAT      O 3029   6.835   6.479   1.092 -0.2774  0.3461 -0.2308
  581WAT     H1 3030   6.878   6.422   1.142 -0.9125  0.1681  0.1204
  581WAT     H2 3031   6.781   6.429   1.045 -0.4290  0.6026 -0.3327
  581WAT    EPW 3032   6.833   6.463   1.092  0.0404  0.2075  0.3267
  582WAT      O 3033   5.002   6.104   6.926  0.6903  0.3595  0.2237
  582WAT     H1 3034   4.937   6.070   6.972  0.7142 -1.5689 -1.0411
  582WAT     H2 3035   5.012   6.184   6.960 -0.2610 -0.4053  2.4895
  582WAT    EPW 3036   4.994   6.111   6.938 -0.2658  0.0791 -0.0518
  583WAT      O 3037   5.294   5.326   0.084 -0.3189  0.2468  0.2559
  583WAT     H1 3038   5.317   5.247   0.112 -1.2668 -0.6101 -1.2307
  583WAT     H2 3039   5.284   5.372   0.157 -1.3035 -1.4648  1.2634
  583WAT    EPW 3040   5.296   5.321   0.099 -0.6600  0.2911 -0.5627
  584WAT      O 3041   2.221   0.583   2.714 -0.1241  0.4121 -0.1372
  584WAT     H1 3042   2.292   0.624   2.745 -0.9684  1.1556  0.8708
  584WAT     H2 3043   2.210   0.517   2.770  0.1434 -0.1033 -0.6795
  584WAT    EPW 3044   2.230   0.579   2.727 -0.1701 -0.2637 -0.0751
  585WAT      O 3045   0.194   0.910   5.364 -0.0243  0.3782 -0.0059
  585WAT     H1 3046   0.249   0.858   5.407 -1.8355 -0.8525  0.9623
  585WAT     H2 3047   0.235   0.926   5.288  2.2560  0.7494  1.2228
  585WAT    EPW 3048   0.208   0.905   5.359  0.0214 -0.0962  0.0339
  586WAT      O 3049   6.118   5.033   2.169  0.0130  0.5338  0.5827
  586WAT     H1 3050   6.135   4.949   2.154 -1.5523  0.3181 -0.1377
  586WAT     H2 3051   6.091   5.033   2.252 -1.2317  0.0948  0.1986
  586WAT    EPW 3052   6.117   5.021   2.179 -0.1002 -0.0340  0.1370
  587WAT      O 3053   2.559   1.139   5.139  0.6599  0.2322 -0.2247
  587WAT     H1 3054   2.485   1.161   5.179  1.0836 -0.7730  1.1806
  587WAT     H2 3055   2.621   1.179   5.185  1.1669 -1.0187  0.2444
  587WAT    EPW 3056   2.557   1.148   5.151  0.2563  0.0588 -0.2894
  588WAT      O 3057   4.125   6.103   0.540  0.1113  0.0747 -0.2506
  588WAT     H1 3058   4.051   6.057   0.541 -1.3661  2.3069 -0.3764
  588WAT     H2 3059   4.098   6.185   0.539  2.5738  1.1166  2.7512
  588WAT    EPW 3060   4.110   6.108   0.540  0.6746  0.2907 -0.2014
  589WAT      O 3061   0.117   3.418   3.402  0.2882 -0.6267 -1.0431
  589WAT     H1 3062   0.187   3.378   3.370  1.0496  0.2749 -0.5816
  589WAT     H2 3063   0.127   3.412   3.489  1.1204  1.5784 -0.9070
  589WAT    EPW 3064   0.129   3.411   3.410  0.0469  0.1597  0.1004
  590WAT      O 3065   3.141   0.811   5.145  0.0433 -0.7427 -0.0694
  590WAT     H1 3066   3.167   0.883   5.103  0.4452 -0.8745 -0.0476
  590WAT     H2 3067   3.063   0.833   5.178  0.3756 -0.1604  0.3417
  590WAT    EPW 3068   3.134   0.825   5.144 -0.3054  0.5581 -0.4359
  591WAT      O 3069   0.247   4.335   1.529  0.2164 -0.5254 -0.4937
  591WAT     H1 3070   0.177   4.285   1.513  0.4881 -1.3663  0.8267
  591WAT     H2 3071   0.312   4.278   1.537  0.4655 -0.0340  1.4095
  591WAT    EPW 3072   0.246   4.319   1.528  0.1809 -0.1671  0.2581
  592WAT      O 3073   6.322   1.845   0.870 -0.0588 -0.7477 -0.4249
  592WAT     H1 3074   6.332   1.859   0.784 -0.9398 -0.1846 -0.4492
  592WAT     H2 3075   6.241   1.814   0.876  0.0083 -0.8139  0.2015
  592WAT    EPW 3076   6.311   1.843   0.858 -0.2459  0.3146 -0.0690
  593WAT      O 3077   5.111   4.660   2.895  0.3492  0.0223 -0.5209
  593WAT     H1 3078   5.121   4.576   2.918  3.5713  0.4530  0.1025
  593WAT     H2 3079   5.070   4.695   2.964  1.9511 -0.4664  0.7567
  593WAT    EPW 3080   5.106   4.652   2.909 -0.0281  0.1019 -0.1748
  594WAT      O 3081   0.996   5.245   3.219  0.3385 -0.2034  0.1671
  594WAT     H1 3082   0.933   5.270   3.273  0.3407 -0.2581  0.1946
  594WAT     H2 3083   0.967   5.169   3.187  0.0704  0.1057 -0.3444
  594WAT    EPW 3084   0.982   5.238   3.222  0.2772 -0.3150  0.1807
  595WAT      O 3085   2.656   1.642   3.474 -0.5157 -0.0224 -0.7804
  595WAT     H1 3086   2.598   1.588   3.512  1.3212 -0.9481  0.8774
  595WAT     H2 3087   2.728   1.593   3.466  0.8114  1.7802 -0.4719
  595WAT    EPW 3088   2.658   1.627   3.479 -0.1706  0.0722  0.2129
  596WAT      O 3089   7.171   2.912   3.257 -0.5342  0.0013  0.2794
  596WAT     H1 3090   7.256   2.930   3.259 -0.4234 -0.5437  1.8595
  596WAT     H2 3091   7.161   2.854   3.321 -1.8987 -0.8905 -0.6847
  596WAT    EPW 3092   7.182   2.906   3.267  0.4474  0.0213 -0.0651
  597WAT      O 3093   4.735   4.353   5.071  0.1974 -0.4597 -0.1295
  597WAT     H1 3094   4.806   4.305   5.054  0.2351 -0.5955  0.3971
  597WAT     H2 3095   4.694   4.358   4.994  1.7479  1.2403 -0.9130
  597WAT    EPW 3096   4.739   4.346   5.057 -0.3750 -0.2968 -0.2947
  598WAT      O 3097   4.390   5.528   3.205 -0.0707 -0.1124  0.8054
  598WAT     H1 3098   4.341   5.461   3.178  0.5866 -0.6982  1.0408
  598WAT     H2 3099   4.360   5.544   3.286  0.9580 -1.3117  1.4538
  598WAT    EPW 3100   4.378   5.521   3.213  0.8589  0.5150 -0.5373
  599WAT      O 3101   2.575   7.483   0.283  0.1112  0.8523 -0.6286
  599WAT     H1 3102   2.639   7.522   0.238 -0.7886  2.0616 -0.9074
  599WAT     H2 3103   2.613   7.464   0.360  0.7997  1.5781 -0.7698
  599WAT    EPW 3104   2.590   7.486   0.288  0.3882 -0.2252  0.1386
  600WAT      O 3105   6.011   7.293   0.791 -0.1550  1.0633  0.1127
  600WAT     H1 3106   6.086   7.327   0.820  0.4574  1.1219 -1.4010
  600WAT     H2 3107   6.024   7.207   0.797 -0.3375  1.0822  0.7392
  600WAT    EPW 3108   6.024   7.285   0.796 -0.0108  0.4488  0.5836
  601WAT      O 3109   6.207   2.058   2.485 -0.0408 -0.1284 -0.0326
  601WAT     H1 3110   6.233   2.082   2.564  2.3669 -0.6504 -0.6033
  601WAT     H2 3111   6.247   2.114   2.432 -0.3949 -0.7303 -0.9735
  601WAT    EPW 3112   6.217   2.070   2.489  0.6469 -0.1128  0.1027
  602WAT      O 3113   0.581   2.240   6.603  0.1368 -0.0353  0.4306
  602WAT     H1 3114   0.570   2.319   6.637  0.2712  0.1371  0.0867
  602WAT     H2 3115   0.661   2.216   6.629 -1.0216 -1.3683  3.0876
  602WAT    EPW 3116   0.591   2.248   6.612  0.2014  0.0735  0.0975
  603WAT      O 3117   7.100   6.948   5.498  0.2766 -0.2749 -0.0039
  603WAT     H1 3118   7.138   7.024   5.515  2.4594 -1.6063  1.4955
  603WAT     H2 3119   7.096   6.946   5.411  2.4656  0.5578 -0.1904
  603WAT    EPW 3120   7.105   6.959   5.488 -0.3036  0.3981  0.1662
  604WAT      O 3121   4.646   6.210   3.178 -0.3560  0.3643  0.1465
  604WAT     H1 3122   4.586   6.164   3.222 -0.1257 -0.2009 -0.1169
  604WAT     H2 3123   4.625   6.196   3.094 -1.0000  1.7124  0.0641
  604WAT    EPW 3124   4.634   6.201   3.172 -0.2344 -0.0409  0.4824
  605WAT      O 3125   4.717   1.902   1.297 -0.0678  0.2016  0.2182
  605WAT     H1 3126   4.782   1.936   1.250  1.5949 -0.9703  1.5312
  605WAT     H2 3127   4.709   1.957   1.364 -1.1015  0.8277 -0.3914
  605WAT    EPW 3128   4.726   1.915   1.300  0.1876  0.1379 -0.6440
  606WAT      O 3129   6.780   5.257   5.422 -0.0541 -0.0453 -0.8806
  606WAT     H1 3130   6.721   5.241   5.359  1.1202 -0.7351 -1.8478
  606WAT     H2 3131   6.856   5.253   5.380  0.7855 -0.8274  0.6532
  606WAT    EPW 3132   6.782   5.254   5.406  0.6496 -0.3937  0.5899
  607WAT      O 3133   0.934   6.150   3.186 -0.0822  0.3032  0.1235
  607WAT     H1 3134   0.940   6.233   3.160 -1.1396  0.4834  0.4285
  607WAT     H2 3135   0.856   6.125   3.156  1.1989 -1.3729 -2.1270
  607WAT    EPW 3136   0.924   6.159   3.177  0.0725 -0.3507 -0.2870
  608WAT      O 3137   1.859   1.570   6.426  0.0171 -0.0740 -0.2209
  608WAT     H1 3138   1.905   1.643   6.432  1.0621 -0.5450 -1.8876
  608WAT     H2 3139   1.785   1.595   6.388  0.6596  0.0500 -1.4453
  608WAT    EPW 3140   1.855   1.584   6.421 -0.2914  0.5346 -0.0418
  609WAT      O 3141   4.055   0.194   6.690 -0.1941  0.4800  0.0356
  609WAT     H1 3142   4.074   0.268   6.647 -0.1408  0.7968  0.5821
  609WAT     H2 3143   4.126   0.145   6.678 -0.3556  0.4011 -0.5834
  609WAT    EPW 3144   4.068   0.198   6.682  0.6279  0.5953  0.2041
  610WAT      O 3145   4.358   6.503   1.840  0.6360  0.2214  0.4156
  610WAT     H1 3146   4.408   6.477   1.773 -0.1314 -0.6136  0.1467
  610WAT     H2 3147   4.285   6.530   1.801 -0.4859 -1.8366  0.9773
  610WAT    EPW 3148   4.355   6.503   1.824  0.6296 -0.1362  0.0853
  611WAT      O 3149   3.070   2.518   1.149  0.2965 -0.0201 -0.3952
  611WAT     H1 3150   2.996   2.493   1.187 -0.7548  0.1967 -2.1647
  611WAT     H2 3151   3.106   2.443   1.122 -0.0971 -0.0326 -0.9092
  611WAT    EPW 3152   3.064   2.503   1.151  0.2257  0.0225 -0.3388
  612WAT      O 3153   2.218   7.119   6.112  0.3018 -0.8225 -0.5113
  612WAT     H1 3154   2.281   7.085   6.161  0.7320  1.7426  0.8774
  612WAT     H2 3155   2.248   7.111   6.031  2.9307  1.1146  0.1506
  612WAT    EPW 3156   2.231   7.113   6.107  0.1482 -0.0751 -0.7327
  613WAT      O 3157   5.005   4.121   5.063 -0.1846 -0.0207  0.3037
  613WAT     H1 3158   5.051   4.196   5.066  1.1747 -0.8396  0.7516
  613WAT     H2 3159   5.019   4.092   4.983 -0.9729  0.3319  0.0231
  613WAT    EPW 3160   5.014   4.128   5.052 -0.3069  0.3761  0.2968
  614WAT      O 3161   5.347   7.357   1.837  0.5499  0.0627 -0.1937
  614WAT     H1 3162   5.380   7.285   1.800  0.5317  0.5957 -1.2725
  614WAT     H2 3163   5.299   7.325   1.903  1.4579 -0.8425  0.0503
  614WAT    EPW 3164   5.345   7.342   1.841  0.0972  0.0892  0.0705
  615WAT      O 3165   1.638   7.253   6.094  0.2293  0.0384  0.0358
  615WAT     H1 3166   1.564   7.217   6.123  0.7082  0.4394  1.8861
  615WAT     H2 3167   1.611   7.315   6.039 -0.7459 -0.3877  0.0112
  615WAT    EPW 3168   1.623   7.257   6.090 -0.1360  0.5676  0.0834
  616WAT      O 3169   7.070   6.603   0.586 -0.1028 -0.0542  0.3586
  616WAT     H1 3170   7.080   6.603   0.499 -1.7606  0.0443  0.1343
  616WAT     H2 3171   7.032   6.679   0.602 -0.4322 -0.3642  1.0937
  616WAT    EPW 3172   7.066   6.614   0.576 -0.0823  0.2508 -0.1525
  617WAT      O 3173   6.531   6.869   3.767 -0.0914 -0.1523 -0.6461
  617WAT     H1 3174   6.467   6.926   3.752 -0.1490  0.9548  2.8179
  617WAT     H2 3175   6.489   6.799   3.797  0.2066 -0.3516 -0.6929
  617WAT    EPW 3176   6.515   6.867   3.769  0.1333 -0.1413  0.5186
  618WAT      O 3177   1.399   4.075   4.938  0.7365  0.2310  0.0493
  618WAT     H1 3178   1.319   4.057   4.908 -0.4094  1.5318  2.1034
  618WAT     H2 3179   1.426   4.140   4.886  0.3587 -0.0178 -0.4747
  618WAT    EPW 3180   1.391   4.082   4.926  0.0254 -0.8180  0.4209
  619WAT      O 3181   0.307   7.282   3.091 -0.2929  0.1858  0.0846
  619WAT     H1 3182   0.274   7.344   3.142 -0.1930 -0.4220  0.9049
  619WAT     H2 3183   0.381   7.318   3.060  0.0557  0.2750  1.0069
  619WAT    EPW 3184   0.313   7.297   3.094 -0.0459  0.0401  0.3400
  620WAT      O 3185   3.352   4.855   1.123  0.1820  0.2467 -0.3413
  620WAT     H1 3186   3.350   4.942   1.122 -0.8590  0.2392 -1.3646
  620WAT     H2 3187   3.342   4.835   1.207 -2.3341  1.1431 -0.3263
  620WAT    EPW 3188   3.350   4.865   1.135  0.7947  0.7557  0.0712
  621WAT      O 3189   0.771   6.091   3.697  0.0927 -0.3552 -0.0450
  621WAT     H1 3190   0.837   6.100   3.753  1.4833  0.9255 -1.7956
  621WAT     H2 3191   0.764   6.004   3.688  0.0786 -0.5942  1.7391
  621WAT    EPW 3192   0.780   6.079   3.704 -0.0601 -0.1755  0.0572
  622WAT      O 3193   2.254   1.194   0.677  0.2691 -0.6335 -0.2446
  622WAT     H1 3194   2.267   1.178   0.761  1.3470 -1.3329 -0.5256
  622WAT     H2 3195   2.268   1.116   0.639 -0.6781 -0.4421 -1.0251
  622WAT    EPW 3196   2.258   1.180   0.684 -0.6938 -0.1324  0.2233
  623WAT      O 3197   6.952   0.412   4.052 -0.4053 -0.0578  0.8119
  623WAT     H1 3198   6.932   0.437   3.971  2.3367 -1.3831 -0.4330
  623WAT     H2 3199   6.908   0.337   4.062 -0.1559 -0.2946  0.1991
  623WAT    EPW 3200   6.943   0.405   4.041  0.1979  0.7364  0.1053
  624WAT      O 3201   4.180   6.764   5.894 -0.2020 -0.5067  0.1949
  624WAT     H1 3202   4.167   6.755   5.980 -0.3826 -1.4564  0.0815
  624WAT     H2 3203   4.159   6.847   5.879  0.1884 -0.2236  1.1274
  624WAT    EPW 3204   4.175   6.775   5.905 -0.3035  0.0899 -0.4978
  625WAT      O 3205   6.923   2.318   3.614 -0.1323 -0.3651  0.3331
  625WAT     H1 3206   6.839   2.331   3.634 -0.1124 -0.7817  0.7195
  625WAT     H2 3207   6.960   2.396   3.625 -0.5905 -0.0193 -0.5001
  625WAT    EPW 3208   6.916   2.331   3.618 -0.2321 -0.5309 -0.1151
  626WAT      O 3209   0.144   0.000   1.794 -0.5813 -0.5208  0.3546
  626WAT     H1 3210   0.220   0.028   1.827  0.2454 -1.4692 -0.6742
  626WAT     H2 3211   0.097  -0.021   1.865 -0.5664  1.6430  1.0901
  626WAT    EPW 3212   0.148   0.001   1.809 -0.1311 -0.2703  0.2150
  627WAT      O 3213   0.176   3.391   4.249 -0.4892 -0.1925 -0.4935
  627WAT     H1 3214   0.234   3.455   4.263 -0.2152 -0.6550  0.5810
  627WAT     H2 3215   0.115   3.405   4.310 -1.5973  0.3532 -1.6702
  627WAT    EPW 3216   0.175   3.403   4.260 -0.4339  0.3383 -0.0101
  628WAT      O 3217   2.030   2.328   0.427  0.1944  0.2985 -0.3848
  628WAT     H1 3218   2.076   2.263   0.390  0.1345 -0.8890  1.5035
  628WAT     H2 3219   2.080   2.355   0.492 -0.2877  1.4173 -0.4562
  628WAT    EPW 3220   2.044   2.322   0.431  0.0272 -0.1196 -0.5020
  629WAT      O 3221   0.636   3.886   4.577 -0.0258  0.1679 -0.1540
  629WAT     H1 3222   0.556   3.882   4.611  0.4872 -1.0890  0.9668
  629WAT     H2 3223   0.686   3.906   4.645  0.5885  1.4419 -0.9399
  629WAT    EPW 3224   0.631   3.888   4.592 -0.1422 -0.2839  0.6809
  630WAT      O 3225   5.004   3.251   3.821  0.2835  0.3310  0.0605
  630WAT     H1 3226   5.007   3.164   3.821  1.0752  0.3489  0.6232
  630WAT     H2 3227   4.982   3.270   3.904 -0.4041  0.6551 -0.1895
  630WAT    EPW 3228   5.001   3.241   3.834  0.5091 -0.0307 -0.3113
  631WAT      O 3229   0.871   1.017   1.915  0.6517  0.2789 -0.3302
  631WAT     H1 3230   0.893   1.029   1.999 -1.1498 -2.4348  0.6693
  631WAT     H2 3231   0.926   0.955   1.889  0.0515 -0.1668 -0.5588
  631WAT    EPW 3232   0.882   1.010   1.924  0.3023  0.2970 -0.1141
  632WAT      O 3233   5.236   3.856   1.678  0.6012  0.1834 -0.1869
  632WAT     H1 3234   5.196   3.780   1.691 -0.1142  0.7362  1.0474
  632WAT     H2 3235   5.279   3.845   1.603 -1.4835 -0.5783 -1.3212
  632WAT    EPW 3236   5.237   3.843   1.669  0.0031 -0.0077  1.0535
  633WAT      O 3237   2.135   4.341   0.225 -0.1843 -0.3646  0.3335
  633WAT     H1 3238   2.172   4.265   0.206  0.7093  0.2798 -0.5599
  633WAT     H2 3239   2.134   4.383   0.149 -3.0792 -0.4546  0.2142
  633WAT    EPW 3240   2.140   4.336   0.211 -0.2906  0.0101 -0.0476
  634WAT      O 3241   5.892   3.186   3.501 -0.0386 -0.1362 -0.3962
  634WAT     H1 3242   5.815   3.226   3.510 -0.5246 -1.3583  1.2265
  634WAT     H2 3243   5.945   3.249   3.472 -1.2346  1.1619  0.1705
  634WAT    EPW 3244   5.889   3.201   3.498 -0.6409  0.4599 -0.3750
  635WAT      O 3245   3.094   6.956   5.434  0.1063 -0.1293 -0.1863
  635WAT     H1 3246   3.015   6.985   5.412  0.6239  0.7808 -0.9336
  635WAT     H2 3247   3.090   6.870   5.421 -0.8554 -0.1299  0.0922
  635WAT    EPW 3248   3.082   6.948   5.429  0.1609 -0.1257 -0.2578
  636WAT      O 3249   2.708   7.384   2.877  0.2632 -0.2910  0.0775
  636WAT     H1 3250   2.653   7.388   2.809 -0.8754  0.4656  1.0089
  636WAT     H2 3251   2.737   7.301   2.875 -0.8910 -0.7000 -0.4562
  636WAT    EPW 3252   2.704   7.372   2.867 -0.0501  0.1333 -0.1693
  637WAT      O 3253   3.701   5.230   0.622  0.7932  0.5619  0.2756
  637WAT     H1 3254   3.757   5.164   0.631 -1.0587 -1.2113 -0.6811
  637WAT     H2 3255   3.716   5.259   0.541  1.4653  1.2570  0.6257
  637WAT    EPW 3256   3.712   5.225   0.612 -0.1018  0.0701  0.0641
  638WAT      O 3257   5.869   5.598   0.433 -0.6876 -0.0447  0.8983
  638WAT     H1 3258   5.833   5.524   0.462 -1.0008 -1.2365 -2.1798
  638WAT     H2 3259   5.801   5.646   0.407 -0.4143  0.9734  1.9362
  638WAT    EPW 3260   5.854   5.594   0.434 -0.6104  0.4247 -0.2355
  639WAT      O 3261   6.159   6.419   4.064  0.1386 -0.0185 -0.1872
  639WAT     H1 3262   6.128   6.445   3.987  2.4856  0.5745 -1.0205
  639WAT     H2 3263   6.132   6.482   4.119  0.0343  0.5598 -0.8884
  639WAT    EPW 3264   6.150   6.432   4.061  0.0430 -0.0839  0.0331
  640WAT      O 3265   4.579   0.025   4.389  0.2372  0.1614 -0.0915
  640WAT     H1 3266   4.494   0.043   4.390  0.1097 -0.4296  0.0247
  640WAT     H2 3267   4.616   0.102   4.370 -0.3114  0.4488 -0.0141
  640WAT    EPW 3268   4.572   0.039   4.387 -0.1449  0.6678  0.1574
  641WAT      O 3269   4.823   1.408   3.219  1.0134 -0.5053  0.2685
  641WAT     H1 3270   4.795   1.345   3.166  0.1694 -0.3111  0.4688
  641WAT     H2 3271   4.778   1.395   3.293 -0.0013  0.9357 -0.0312
  641WAT    EPW 3272   4.812   1.397   3.222 -0.5103  0.2677  0.3777
  642WAT      O 3273   4.757   5.219   0.514 -0.7124 -0.1288 -0.0374
  642WAT     H1 3274   4.753   5.243   0.429 -0.8448  1.0548  0.2748
  642WAT     H2 3275   4.702   5.276   0.552 -0.6315 -0.6441  0.8457
  642WAT    EPW 3276   4.748   5.231   0.507 -0.0815  0.2723 -0.1566
  643WAT      O 3277   2.098   5.000   4.304 -0.5045  0.0140 -0.0496
  643WAT     H1 3278   2.028   5.051   4.303  0.5795  1.6542  1.3124
  643WAT     H2 3279   2.134   5.013   4.225 -0.0952  1.6746  0.3672
  643WAT    EPW 3280   2.093   5.009   4.292 -0.5117  0.1977 -0.5010
  644WAT      O 3281   4.174   5.265   2.672  0.3801  0.3697 -0.0140
  644WAT     H1 3282   4.161   5.183   2.697 -0.1487  0.5333  0.2693
  644WAT     H2 3283   4.228   5.298   2.732 -1.6765  1.0619  1.5757
  644WAT    EPW 3284   4.180   5.258   2.684  0.4602 -0.2710  0.6964
  645WAT      O 3285   1.099   5.214   0.668 -0.2279  0.0356  0.1577
  645WAT     H1 3286   1.090   5.142   0.717 -0.7338 -0.2037 -0.2738
  645WAT     H2 3287   1.137   5.184   0.595 -0.9668  0.0963 -0.2607
  645WAT    EPW 3288   1.103   5.199   0.664  0.0376 -0.3865  0.2760
  646WAT      O 3289   6.733   4.254   3.218  0.6046  0.0967 -0.1150
  646WAT     H1 3290   6.666   4.227   3.169  1.4779 -2.0764 -0.2313
  646WAT     H2 3291   6.764   4.323   3.176 -0.8131  0.3947 -0.7087
  646WAT    EPW 3292   6.728   4.260   3.205 -0.1841  1.0777  0.9297
  647WAT      O 3293   0.604   7.034   1.718  0.4875  0.0353 -0.3815
  647WAT     H1 3294   0.608   6.980   1.650  2.0372  0.9315 -1.0357
  647WAT     H2 3295   0.657   6.997   1.777 -0.6769 -0.6222  0.2908
  647WAT    EPW 3296   0.612   7.021   1.717 -0.1657  0.2710  0.1090
  648WAT      O 3297   0.485   2.166   2.242  0.2372 -0.1925 -0.2991
  648WAT     H1 3298   0.523   2.216   2.182  1.5194 -1.1854 -0.3703
  648WAT     H2 3299   0.547   2.157   2.303 -1.4130  1.7517  1.8370
  648WAT    EPW 3300   0.500   2.172   2.242 -0.2792  0.8583 -0.2469
  649WAT      O 3301   0.733   5.116   1.109 -0.1910 -0.2405  0.1370
  649WAT     H1 3302   0.807   5.149   1.078 -0.1468 -0.2488  0.2312
  649WAT     H2 3303   0.682   5.107   1.039  0.6797 -2.3271 -0.3075
  649WAT    EPW 3304   0.736   5.120   1.094  0.0824 -0.8901 -0.2235
  650WAT      O 3305   1.849   4.709   0.174  0.5044 -0.3118 -0.3166
  650WAT     H1 3306   1.782   4.758   0.146  0.5568 -0.0746 -0.0336
  650WAT     H2 3307   1.905   4.711   0.107  0.1191 -0.7223 -0.6557
  650WAT    EPW 3308   1.847   4.717   0.160 -0.2016  0.6518  0.3821
  651WAT      O 3309   1.248   2.850   1.351 -0.0120 -0.0500 -0.8324
  651WAT     H1 3310   1.234   2.850   1.437  2.0341  0.4068 -0.4371
  651WAT     H2 3311   1.195   2.788   1.320 -0.2162 -0.7587  0.8683
  651WAT    EPW 3312   1.238   2.841   1.359  0.0206 -0.3607 -0.0241
  652WAT      O 3313   0.411   7.173   1.596 -0.3217 -0.7193 -0.1457
  652WAT     H1 3314   0.353   7.203   1.654  0.6858  0.3036  0.3867
  652WAT     H2 3315   0.460   7.118   1.643  0.4416  0.0468 -0.0074
  652WAT    EPW 3316   0.410   7.169   1.612  0.1370 -0.3134 -0.1978
  653WAT      O 3317   3.480   6.888   0.834  0.2675  0.2508 -0.1834
  653WAT     H1 3318   3.527   6.866   0.904  1.8246 -1.0719 -1.5596
  653WAT     H2 3319   3.439   6.814   0.813 -1.6330  1.0866  0.3075
  653WAT    EPW 3320   3.481   6.874   0.842 -0.2966  0.2643 -0.4998
  654WAT      O 3321   5.944   7.343   2.806 -0.4403 -0.4148 -0.2888
  654WAT     H1 3322   5.922   7.271   2.763 -1.3489 -1.5903  1.9477
  654WAT     H2 3323   5.902   7.406   2.763 -0.0190 -1.2381 -2.0134
  654WAT    EPW 3324   5.935   7.342   2.793  0.2568  0.5991  0.5232
  655WAT      O 3325   5.212   4.300   4.946  0.0966 -0.2476  0.1800
  655WAT     H1 3326   5.177   4.377   4.923  0.0726 -0.3572 -0.1547
  655WAT     H2 3327   5.285   4.324   4.988  1.3410 -0.0407 -1.9347
  655WAT    EPW 3328   5.218   4.315   4.949 -0.7872 -0.3044 -0.2394
  656WAT      O 3329   2.818   7.112   2.884  0.0953 -0.8141 -0.0239
  656WAT     H1 3330   2.905   7.116   2.895 -0.0948  2.4092  1.6339
  656WAT     H2 3331   2.809   7.085   2.802  2.7334 -0.2441 -0.5933
  656WAT    EPW 3332   2.829   7.109   2.873 -0.1962 -0.0484 -0.3194
  657WAT      O 3333   1.858   4.888   2.147 -0.2612  0.0638  0.1718
  657WAT     H1 3334   1.827   4.813   2.180 -0.3111  0.1373  0.2924
  657WAT     H2 3335   1.847   4.945   2.212 -0.3376  0.2037  0.0363
  657WAT    EPW 3336   1.852   4.885   2.162  0.0763  0.0964  1.1884
  658WAT      O 3337   4.915   5.316   6.732 -0.0399  0.3474 -0.1504
  658WAT     H1 3338   4.864   5.246   6.741 -0.9664  1.0963  0.6528
  658WAT     H2 3339   4.958   5.301   6.658 -0.8825 -0.6379 -0.4594
  658WAT    EPW 3340   4.914   5.303   6.723  0.0544 -0.2193  0.2171
  659WAT      O 3341   3.437   5.530   6.941 -0.4143  0.2761  0.5144
  659WAT     H1 3342   3.352   5.550   6.940 -0.4033  0.3137  0.1197
  659WAT     H2 3343   3.474   5.603   6.970 -0.6894 -0.4704  2.9759
  659WAT    EPW 3344   3.430   5.544   6.945 -0.2958 -0.4185  0.5817
  660WAT      O 3345   7.318   1.437   1.557  0.1309 -0.1533 -0.4449
  660WAT     H1 3346   7.275   1.429   1.632  0.9204 -1.5830 -0.1101
  660WAT     H2 3347   7.325   1.354   1.529  0.4874  0.2946 -1.7281
  660WAT    EPW 3348   7.312   1.423   1.564 -0.2315  0.0584 -0.0134
  661WAT      O 3349   0.311   0.572   1.737 -0.3147  0.0318 -0.5340
  661WAT     H1 3350   0.292   0.554   1.820 -0.1862  0.4224 -0.4156
  661WAT     H2 3351   0.301   0.659   1.733 -0.4434 -0.0018 -0.9573
  661WAT    EPW 3352   0.307   0.583   1.749  0.3473 -0.4556 -0.1449
  662WAT      O 3353   5.296   3.601   1.851  0.4293  0.5904 -0.1434
  662WAT     H1 3354   5.318   3.633   1.773 -3.5992  2.1642 -0.8993
  662WAT     H2 3355   5.263   3.670   1.893 -3.2569 -1.2090  0.3983
  662WAT    EPW 3356   5.294   3.616   1.845  0.5790  0.0192 -0.2758
  663WAT      O 3357   1.448   1.340   3.669  0.9145 -0.3026  0.6016
  663WAT     H1 3358   1.529   1.359   3.696  0.0774  3.0485  1.2189
  663WAT     H2 3359   1.413   1.298   3.737  1.4621  0.3206  1.2950
  663WAT    EPW 3360   1.455   1.337   3.683  0.4471 -0.4364  0.1165
  664WAT      O 3361   1.112   6.106   6.730 -0.4385 -0.3930  0.0263
  664WAT     H1 3362   1.188   6.148   6.744 -1.5658  1.4656  0.9693
  664WAT     H2 3363   1.134   6.042   6.675  1.5602  0.9459 -0.8554
  664WAT    EPW 3364   1.127   6.103   6.724  0.2663  0.8017  0.2711
  665WAT      O 3365   3.681   3.561   6.815  0.2789  0.2047  0.6984
  665WAT     H1 3366   3.677   3.475   6.830 -0.0694  0.4077  1.8708
  665WAT     H2 3367   3.727   3.566   6.740 -0.6676 -1.0356 -0.0069
  665WAT    EPW 3368   3.687   3.549   6.806  0.2164 -0.2238 -0.4193
  666WAT      O 3369   5.432   5.846   7.046 -0.5519  0.4362  0.0772
  666WAT     H1 3370   5.375   5.892   6.999 -0.0784 -0.2991 -1.2600
  666WAT     H2 3371   5.504   5.847   6.997  0.2215  0.3273  1.1799
  666WAT    EPW 3372   5.434   5.853   7.032 -0.3419 -0.1773  0.7582
  667WAT      O 3373   0.827   7.470   6.471  0.8873 -0.0144  0.1936
  667WAT     H1 3374   0.862   7.533   6.421  0.5971  2.1988  2.5788
  667WAT     H2 3375   0.752   7.505   6.498  0.4436 -1.6297  1.1432
  667WAT    EPW 3376   0.821   7.485   6.468 -0.6611 -0.5787 -0.4190
  668WAT      O 3377   4.745   5.274   3.118 -0.2148 -0.3168  0.1573
  668WAT     H1 3378   4.806   5.219   3.148 -0.6559 -1.1364 -0.4185
  668WAT     H2 3379   4.670   5.231   3.130 -0.4743 -0.3268 -1.3364
  668WAT    EPW 3380   4.743   5.260   3.124  0.2374 -0.0661  0.0565
  669WAT      O 3381   7.468   3.355   6.143  0.4734  0.0009 -1.1393
  669WAT     H1 3382   7.546   3.330   6.174 -0.4251 -0.1550  1.2335
  669WAT     H2 3383   7.483   3.436   6.113  1.2384  0.7219  0.9766
  669WAT    EPW 3384   7.482   3.363   6.143 -0.9804 -0.2498  0.2430
  670WAT      O 3385   7.092   4.521   1.072 -0.1369 -0.0736  0.3125
  670WAT     H1 3386   7.041   4.588   1.050 -0.3990 -0.2156  0.4740
  670WAT     H2 3387   7.036   4.465   1.110  0.0843 -0.3703  0.2015
  670WAT    EPW 3388   7.076   4.522   1.075  0.4147  0.3267  0.3444
  671WAT      O 3389   2.426   4.699   3.362 -0.5283 -0.1836  0.1423
  671WAT     H1 3390   2.363   4.691   3.422 -0.2653 -1.9863  0.2236
  671WAT     H2 3391   2.381   4.707   3.287 -0.8676 -0.8082  0.2714
  671WAT    EPW 3392   2.410   4.699   3.360  0.5223 -0.2722 -0.2799
  672WAT      O 3393   6.624   2.555   5.496 -0.0303  0.1089 -0.2512
  672WAT     H1 3394   6.544   2.575   5.468  0.2508  1.9019  0.0971
  672WAT     H2 3395   6.667   2.535   5.422 -0.1466  1.6424 -0.7712
  672WAT    EPW 3396   6.619   2.555   5.481 -0.4230 -0.4800 -0.3506
  673WAT      O 3397   6.297   6.484   0.809 -0.5457  0.1857  0.1988
  673WAT     H1 3398   6.374   6.491   0.768 -0.9747  1.4629 -0.4463
  673WAT     H2 3399   6.257   6.559   0.790 -1.2738  0.2919  1.9549
  673WAT    EPW 3400   6.303   6.496   0.800  0.2265 -1.2059 -0.7095
  674WAT      O 3401   6.744   2.686   1.559  0.2435  1.0419  0.2782
  674WAT     H1 3402   6.823   2.658   1.584  0.0851 -0.1434 -0.4655
  674WAT     H2 3403   6.714   2.728   1.629  1.3305  1.0675  0.7467
  674WAT    EPW 3404   6.751   2.688   1.573  0.3899 -0.0534  0.9491
  675WAT      O 3405   1.665   4.437   1.394  0.1261  0.2097 -0.3191
  675WAT     H1 3406   1.596   4.482   1.424  1.3987  1.5642  0.6977
  675WAT     H2 3407   1.680   4.474   1.316 -0.9212 -0.8332 -1.0559
  675WAT    EPW 3408   1.657   4.449   1.387  0.0375  0.4280 -0.0275
  676WAT      O 3409   0.163   0.974   2.097 -0.6920 -0.1099  0.1629
  676WAT     H1 3410   0.175   1.013   2.174 -0.4477 -2.2055  1.2523
  676WAT     H2 3411   0.230   0.918   2.091 -1.7356 -1.3461 -0.6548
  676WAT    EPW 3412   0.174   0.972   2.107 -0.2390 -0.0701  0.2688
  677WAT      O 3413   3.174   7.501   1.157 -0.2437 -0.0769  0.0622
  677WAT     H1 3414   3.258   7.495   1.181 -0.0407  1.7303 -0.0774
  677WAT     H2 3415   3.133   7.449   1.214  0.9033 -0.5438  0.4941
  677WAT    EPW 3416   3.180   7.493   1.169 -0.2254  0.4669  0.2493
  678WAT      O 3417   5.561   0.933   1.860  0.2454 -0.1638 -0.3001
  678WAT     H1 3418   5.585   1.012   1.834  1.7371  0.2968  2.1275
  678WAT     H2 3419   5.635   0.887   1.858 -0.4541 -1.3066 -0.9870
  678WAT    EPW 3420   5.575   0.938   1.856 -0.5397 -0.1816 -0.1478
  679WAT      O 3421   6.850   4.556   5.319 -0.3510  0.5422 -0.0608
  679WAT     H1 3422   6.798   4.619   5.290  0.2381  0.2667 -1.8902
  679WAT     H2 3423   6.823   4.485   5.275 -1.0853 -0.5649  2.0341
  679WAT    EPW 3424   6.839   4.555   5.308  0.0378 -0.4201  0.2937
  680WAT      O 3425   6.644   6.852   1.083  0.0078  0.3543 -0.2419
  680WAT     H1 3426   6.631   6.779   1.128  0.1829  0.1766 -0.4769
  680WAT     H2 3427   6.563   6.878   1.063 -0.0263 -0.4195 -1.1831
  680WAT    EPW 3428   6.630   6.845   1.087 -0.0071  0.0628  0.3675
  681WAT      O 3429   6.863   3.278   1.655 -0.0559 -0.0955 -0.3713
  681WAT     H1 3430   6.780   3.261   1.636 -0.6395  1.1721  0.8843
  681WAT     H2 3431   6.880   3.352   1.611  0.1946  0.0234 -0.0800
  681WAT    EPW 3432   6.853   3.286   1.646 -0.6713 -0.6398 -0.3360
  682WAT      O 3433   0.167   2.887   1.773 -0.0669 -0.0638 -0.2075
  682WAT     H1 3434   0.163   2.806   1.805  1.7937 -0.8992 -1.8474
  682WAT     H2 3435   0.115   2.885   1.703 -1.1845  0.6542  0.5571
  682WAT    EPW 3436   0.159   2.875   1.767 -0.2047 -0.3649  0.0220
  683WAT      O 3437   1.726   2.266   1.071  0.1675 -0.4348  0.1468
  683WAT     H1 3438   1.696   2.303   1.144  1.9939  0.3917  0.5334
  683WAT     H2 3439   1.774   2.329   1.034 -0.3766 -0.9693 -1.5663
  683WAT    EPW 3440   1.729   2.281   1.076 -0.0217  0.0674 -0.0852
  684WAT      O 3441   5.097   0.038   1.445 -0.6517  0.2744  0.2856
  684WAT     H1 3442   5.135   0.019   1.521  1.1436 -0.1883 -0.6520
  684WAT     H2 3443   5.162   0.076   1.399 -2.1187  2.0324 -0.4659
  684WAT    EPW 3444   5.112   0.041   1.449  0.9542 -0.4271  0.4661
  685WAT      O 3445   5.883   1.699   3.044  0.3066  0.2162 -0.1339
  685WAT     H1 3446   5.969   1.707   3.033  0.2298  0.9698 -0.2283
  685WAT     H2 3447   5.853   1.686   2.964  0.3031  0.2467 -0.1376
  685WAT    EPW 3448   5.891   1.698   3.031  0.1112 -0.4563  0.0896
  686WAT      O 3449   2.950   3.793   1.678  0.0379  0.6410 -0.2238
  686WAT     H1 3450   2.881   3.772   1.628 -0.4188  0.5496  0.4278
  686WAT     H2 3451   2.925   3.867   1.717  0.2262  0.4949  0.1740
  686WAT    EPW 3452   2.936   3.801   1.676  0.1605  0.5514 -0.2523
  687WAT      O 3453   2.320   1.222   6.662  0.6176  0.3239 -0.1592
  687WAT     H1 3454   2.287   1.271   6.726  1.5945 -0.9538  1.4026
  687WAT     H2 3455   2.400   1.255   6.651  1.2765 -0.8195  0.8914
  687WAT    EPW 3456   2.327   1.234   6.670  0.0169  0.0457 -0.1758
  688WAT      O 3457   4.407   4.640   5.248 -0.3728  0.2947  0.3717
  688WAT     H1 3458   4.336   4.589   5.248 -0.0730 -0.1652  1.3789
  688WAT     H2 3459   4.470   4.587   5.278 -0.2249  1.4413  2.2328
  688WAT    EPW 3460   4.406   4.625   5.253 -0.1062 -0.1909  0.6302
  689WAT      O 3461   2.305   7.174   7.168  0.1305 -0.2918  0.2884
  689WAT     H1 3462   2.308   7.240   7.111  0.4186 -0.3502  0.2357
  689WAT     H2 3463   2.374   7.190   7.221  0.9336 -1.2069 -0.4463
  689WAT    EPW 3464   2.316   7.186   7.168  0.0400 -0.5191 -0.3867
  690WAT      O 3465   1.910   6.906   4.251  0.3805  0.7653 -0.7000
  690WAT     H1 3466   1.914   6.985   4.288  0.2765  0.8507 -0.8684
  690WAT     H2 3467   1.946   6.854   4.310  0.3176  0.9178 -0.5270
  690WAT    EPW 3468   1.916   6.910   4.265  0.2011  0.2211  0.3188
  691WAT      O 3469   7.359   4.199   2.602  0.2805 -0.5752 -1.1399
  691WAT     H1 3470   7.409   4.182   2.671 -0.2876 -2.0092 -1.0423
  691WAT     H2 3471   7.278   4.190   2.633 -0.0017  0.0314 -1.6905
  691WAT    EPW 3472   7.354   4.195   2.617 -0.0169  0.0538 -0.5388
  692WAT      O 3473   0.653   5.700   5.240 -0.7117 -0.1855 -0.3784
  692WAT     H1 3474   0.594   5.642   5.212  1.8581 -2.8665 -0.6664
  692WAT     H2 3475   0.666   5.678   5.323 -0.0785  0.3502 -0.3292
  692WAT    EPW 3476   0.646   5.688   5.248  0.0190  0.6910  0.0366
  693WAT      O 3477   7.246   6.639   3.816 -0.1392  0.0227  0.1837
  693WAT     H1 3478   7.190   6.685   3.864 -0.5881  0.7124 -0.9497
  693WAT     H2 3479   7.298   6.699   3.781  1.3455 -0.6088  1.2085
  693WAT    EPW 3480   7.245   6.655   3.818  0.3095  0.9382  0.2799
  694WAT      O 3481   1.061   1.547   5.859 -0.1572 -0.2786 -0.2951
  694WAT     H1 3482   1.002   1.586   5.911  2.3387  1.5706  1.3568
  694WAT     H2 3483   1.100   1.490   5.912  0.6767 -0.2508 -0.8734
  694WAT    EPW 3484   1.058   1.544   5.874  0.6342  0.4267  0.2465
  695WAT      O 3485   2.228   0.310   5.511 -0.8394  0.6050 -0.0271
  695WAT     H1 3486   2.252   0.257   5.446 -1.7172 -1.2376  1.0435
  695WAT     H2 3487   2.276   0.281   5.579 -1.4385  1.0922  0.6164
  695WAT    EPW 3488   2.239   0.298   5.512 -0.3946  0.2600 -0.4853
  696WAT      O 3489   7.600   2.112   0.077 -0.4731  0.8741 -1.0200
  696WAT     H1 3490   7.524   2.126   0.118 -0.6900 -1.4112 -0.5037
  696WAT     H2 3491   7.576   2.087  -0.003 -0.4491 -1.8690 -0.2520
  696WAT    EPW 3492   7.585   2.111   0.071  0.0948 -0.1466 -0.3738
  697WAT      O 3493   1.891   0.433   3.061  0.2582  0.1049 -0.7467
  697WAT     H1 3494   1.960   0.485   3.070  0.5925 -0.4574 -0.0003
  697WAT     H2 3495   1.902   0.373   3.123 -2.0071  1.2153  0.8816
  697WAT    EPW 3496   1.903   0.432   3.071 -0.2340 -0.5207  0.3367
  698WAT      O 3497   6.311   5.223   6.474 -0.8023 -0.5731 -0.5603
  698WAT     H1 3498   6.304   5.241   6.389 -0.0301  0.1138 -0.4858
  698WAT     H2 3499   6.397   5.211   6.486 -0.9068 -0.7003  0.1119
  698WAT    EPW 3500   6.323   5.224   6.463 -0.4564 -0.0979  0.0414
  699WAT      O 3501   3.249   5.784   2.798 -0.1701 -0.4085 -0.5497
  699WAT     H1 3502   3.321   5.778   2.846 -0.3095 -1.2272 -0.4364
  699WAT     H2 3503   3.237   5.870   2.790 -1.3371 -0.1657  2.6569
  699WAT    EPW 3504   3.258   5.796   2.804 -0.1397 -0.2336  0.0504
  700WAT      O 3505   6.266   1.764   5.650 -0.1125  0.2699 -0.1572
  700WAT     H1 3506   6.284   1.747   5.566  0.8461 -1.9756  0.4266
  700WAT     H2 3507   6.345   1.777   5.685 -0.3968 -0.0287  0.6145
  700WAT    EPW 3508   6.280   1.763   5.643 -0.2301 -0.4082 -0.3175
  701WAT      O 3509   5.794   0.574   4.846  0.2942 -0.0646 -0.1345
  701WAT     H1 3510   5.721   0.534   4.875  0.3464  0.0016  0.0878
  701WAT     H2 3511   5.838   0.510   4.808 -0.1458  0.0075 -0.7820
  701WAT    EPW 3512   5.790   0.559   4.845 -0.1299 -0.3163  0.0012
  702WAT      O 3513   7.410   2.817   1.105  0.1013  0.0061 -0.5684
  702WAT     H1 3514   7.323   2.806   1.096 -0.0046  1.5884 -1.9420
  702WAT     H2 3515   7.443   2.750   1.059 -0.3355 -1.3887  1.0690
  702WAT    EPW 3516   7.402   2.805   1.097  0.0446  0.1888 -0.0716
  703WAT      O 3517   0.777   0.064   2.447  0.1722  0.1938 -1.0100
  703WAT     H1 3518   0.802   0.134   2.493 -0.6050 -0.2701  0.1513
  703WAT     H2 3519   0.705   0.090   2.406 -1.7236 -0.6521  1.5520
  703WAT    EPW 3520   0.770   0.078   2.448  0.1449 -0.3471 -0.1103
  704WAT      O 3521   4.179   4.571   2.332 -0.0496  0.1238  0.0124
  704WAT     H1 3522   4.164   4.499   2.379  0.9497  0.6084  1.1464
  704WAT     H2 3523   4.252   4.603   2.368 -0.4816  1.7070 -0.4543
  704WAT    EPW 3524   4.188   4.565   2.345 -0.0057  0.0584 -0.0758
  705WAT      O 3525   1.020   1.213   6.831  0.4790 -0.1604  0.3777
  705WAT     H1 3526   1.037   1.226   6.916  1.5168  1.3343 -0.0175
  705WAT     H2 3527   1.039   1.290   6.794 -1.0389 -0.4139 -1.0694
  705WAT    EPW 3528   1.025   1.226   6.838 -0.4772  0.6102  0.1302
  706WAT      O 3529   4.881   6.703   3.405 -0.1462 -0.1787  0.3201
  706WAT     H1 3530   4.951   6.651   3.414 -0.3775 -0.7319 -0.8457
  706WAT     H2 3531   4.891   6.763   3.468  2.1620  0.6272 -0.7064
  706WAT    EPW 3532   4.893   6.704   3.415  0.0730  0.4081 -1.2930
  707WAT      O 3533   1.996   3.601   0.558  0.0512 -0.1953 -0.3555
  707WAT     H1 3534   1.943   3.595   0.489 -0.9602  0.7889  0.2947
  707WAT     H2 3535   1.943   3.585   0.625  0.6159  0.5914  0.2977
  707WAT    EPW 3536   1.980   3.598   0.558 -0.7298  0.2996  0.2548
  708WAT      O 3537   4.606   5.446   0.601 -0.0633  0.1849  0.3152
  708WAT     H1 3538   4.555   5.481   0.540 -2.0679  0.5063  2.0734
  708WAT     H2 3539   4.566   5.466   0.675  1.7889 -0.9806  1.7119
  708WAT    EPW 3540   4.593   5.454   0.603 -0.0884 -0.1043  0.3205
  709WAT      O 3541   6.463   3.550   6.583  0.0517 -0.0803  0.2134
  709WAT     H1 3542   6.399   3.609   6.576  0.1272 -0.0611 -0.4110
  709WAT     H2 3543   6.473   3.522   6.501  3.2358  2.4853 -0.4950
  709WAT    EPW 3544   6.455   3.555   6.570  0.7223 -0.2554 -0.0492
  710WAT      O 3545   2.522   2.533   5.624 -0.2668  0.0048 -0.0381
  710WAT     H1 3546   2.451   2.509   5.668 -0.3294  0.4557  0.1090
  710WAT     H2 3547   2.519   2.620   5.626  0.7545  0.0402  0.7194
  710WAT    EPW 3548   2.511   2.542   5.631 -0.2327  0.5162  0.1707
  711WAT      O 3549   1.092   6.191   4.190  0.5160 -0.3804  0.0173
  711WAT     H1 3550   1.165   6.186   4.142  0.9740 -0.5660  0.7153
  711WAT     H2 3551   1.087   6.275   4.212 -0.4052 -0.0283 -1.4089
  711WAT    EPW 3552   1.102   6.203   4.186 -0.7712 -0.3167  0.6128
  712WAT      O 3553   0.200   2.145   6.726  0.0164 -0.0911  0.2320
  712WAT     H1 3554   0.216   2.096   6.655  0.4068  0.5333 -0.1188
  712WAT     H2 3555   0.165   2.088   6.782  1.3314 -0.9892  0.1780
  712WAT    EPW 3556   0.197   2.129   6.724 -0.5678 -0.9490  0.2854
  713WAT      O 3557   2.533   4.265   7.251  0.4031  0.2997 -0.0624
  713WAT     H1 3558   2.578   4.323   7.299  1.7309 -1.8871  1.5518
  713WAT     H2 3559   2.451   4.278   7.275  0.6658  1.4402  0.3032
  713WAT    EPW 3560   2.528   4.276   7.262  0.1524 -0.0740 -0.2583
  714WAT      O 3561   4.916   6.853   2.173  0.1854 -0.0317 -0.4446
  714WAT     H1 3562   4.878   6.788   2.217 -1.6193  1.7436  0.8217
  714WAT     H2 3563   4.973   6.886   2.229 -0.4098  0.7475 -0.2725
  714WAT    EPW 3564   4.919   6.848   2.187 -0.2516  0.2705 -0.0615
  715WAT      O 3565   7.017   6.106   0.716 -0.6117 -0.1975  0.1515
  715WAT     H1 3566   7.039   6.171   0.662  0.7436 -0.4955  0.3009
  715WAT     H2 3567   7.030   6.140   0.796  0.9534 -0.8988  0.2210
  715WAT    EPW 3568   7.022   6.121   0.720 -0.2105 -0.2236 -0.0448
  716WAT      O 3569   4.254   1.532   4.320 -0.0991 -0.3885 -0.2157
  716WAT     H1 3570   4.185   1.481   4.304  0.5587 -1.2949 -0.1898
  716WAT     H2 3571   4.217   1.610   4.338 -1.0698 -0.6516 -0.9724
  716WAT    EPW 3572   4.238   1.536   4.321  0.5635 -0.5591 -0.7159
  717WAT      O 3573   6.545   5.230   0.026 -0.1245  0.4932 -0.9066
  717WAT     H1 3574   6.528   5.301   0.073  2.3987  0.9139 -0.4818
  717WAT     H2 3575   6.589   5.260  -0.043  2.1827 -0.6740 -0.0491
  717WAT    EPW 3576   6.549   5.245   0.023 -0.1468 -0.7732 -0.4774
  718WAT      O 3577   3.530   1.013   2.684 -0.1749 -0.0528  0.9389
  718WAT     H1 3578   3.613   1.019   2.657 -0.7092  1.0710 -0.5897
  718WAT     H2 3579   3.494   0.957   2.627 -0.8326  0.7058  0.6013
  718WAT    EPW 3580   3.537   1.005   2.672  0.2156  0.3068 -0.3971
  719WAT      O 3581   0.394   4.691   0.418  0.1430  0.1714 -0.5585
  719WAT     H1 3582   0.356   4.741   0.478  1.2717  0.7429 -0.2941
  719WAT     H2 3583   0.333   4.683   0.356 -1.0423 -0.4308  0.6273
  719WAT    EPW 3584   0.380   4.697   0.418 -0.5938  0.2326  0.1876
  720WAT      O 3585   1.335   5.627   3.372  0.0436  0.7337  0.9086
  720WAT     H1 3586   1.390   5.564   3.348 -0.1528  1.2424 -1.1185
  720WAT     H2 3587   1.297   5.650   3.297 -1.9078  1.3751  2.0126
  720WAT    EPW 3588   1.337   5.621   3.357  0.3738  0.1735  0.8395
  721WAT      O 3589   3.090   4.214   0.164 -0.9620  0.2012  0.3438
  721WAT     H1 3590   3.147   4.277   0.184 -1.4242  0.5506  0.5686
  721WAT     H2 3591   3.096   4.159   0.231 -0.7972  0.1705  0.3056
  721WAT    EPW 3592   3.100   4.216   0.176 -0.1089 -0.0058 -0.4755
  722WAT      O 3593   5.404   4.507   5.939  0.1219 -0.0762 -0.5322
  722WAT     H1 3594   5.435   4.445   5.992 -2.5676  1.2394  2.9318
  722WAT     H2 3595   5.337   4.469   5.899  1.2145 -0.6079 -1.9498
  722WAT    EPW 3596   5.399   4.492   5.941 -0.1957  0.0203 -0.1130
  723WAT      O 3597   4.540   1.301   1.318 -0.9449 -0.6926  0.3119
  723WAT     H1 3598   4.501   1.379   1.319 -1.2286 -0.8071 -0.7306
  723WAT     H2 3599   4.490   1.253   1.266 -1.0050 -1.7208  1.2745
  723WAT    EPW 3600   4.527   1.306   1.311 -0.3957 -0.2137 -0.1106
  724WAT      O 3601   3.324   3.421   0.508 -0.0210  0.5785  0.4928
  724WAT     H1 3602   3.404   3.397   0.484 -0.2899  0.8582 -0.7815
  724WAT     H2 3603   3.326   3.508   0.502 -0.9552  0.5198 -1.5372
  724WAT    EPW 3604   3.336   3.430   0.504 -0.1029 -0.5276 -0.0625
  725WAT      O 3605   3.498   5.910   6.752 -0.2572  0.4247 -0.1921
  725WAT     H1 3606   3.471   5.937   6.673 -1.2975 -1.3421 -0.4888
  725WAT     H2 3607   3.544   5.838   6.734  2.9098  2.0654  0.5162
  725WAT    EPW 3608   3.501   5.903   6.737  0.0306  0.4176 -0.0726
  726WAT      O 3609   0.165   2.428   5.035  0.6599 -0.2015 -0.3557
  726WAT     H1 3610   0.112   2.439   4.967  1.5050 -0.3083 -1.0376
  726WAT     H2 3611   0.114   2.447   5.104 -0.5055 -1.1328 -0.9287
  726WAT    EPW 3612   0.149   2.433   5.035  0.1074 -0.8167 -0.0146
  727WAT      O 3613   3.426   2.217   6.628 -0.4740 -0.1688  0.1511
  727WAT     H1 3614   3.363   2.165   6.656  0.4394 -1.1927  0.3623
  727WAT     H2 3615   3.383   2.280   6.585 -1.5470 -2.3926 -2.3042
  727WAT    EPW 3616   3.411   2.219   6.626  0.1507  0.2927  0.1923
  728WAT      O 3617   4.886   2.325   4.767  0.2760  0.3687  0.0128
  728WAT     H1 3618   4.949   2.327   4.707 -0.1156 -1.8113 -0.5535
  728WAT     H2 3619   4.816   2.298   4.723 -0.1127 -0.9195  1.3541
  728WAT    EPW 3620   4.885   2.321   4.752 -0.5040 -0.6267  0.7163
  729WAT      O 3621   1.423   6.726   5.520  0.1096 -0.6587 -0.2753
  729WAT     H1 3622   1.432   6.802   5.477 -1.8621 -0.5433 -0.6102
  729WAT     H2 3623   1.505   6.700   5.533  0.8478  1.3434 -0.4730
  729WAT    EPW 3624   1.436   6.734   5.516 -0.0910 -0.0230 -0.1564
  730WAT      O 3625   5.929   3.686   6.246 -0.0426 -0.0828  0.0341
  730WAT     H1 3626   5.853   3.649   6.265  0.3997 -0.7617  0.5663
  730WAT     H2 3627   5.957   3.715   6.324  1.1826 -1.6962  0.2451
  730WAT    EPW 3628   5.922   3.685   6.260 -0.6595 -0.1992  0.2314
  731WAT      O 3629   5.040   5.677   3.181  0.0204  0.2603 -0.0509
  731WAT     H1 3630   5.072   5.731   3.241  1.2994 -0.8190  0.2945
  731WAT     H2 3631   5.025   5.603   3.226 -0.5806 -0.0488 -0.7320
  731WAT    EPW 3632   5.043   5.674   3.197  0.0636 -0.2050 -0.3315
  732WAT      O 3633   0.712   3.170   7.217  0.2339  0.6893  0.1364
  732WAT     H1 3634   0.771   3.198   7.275  2.0016  2.4422 -2.3333
  732WAT     H2 3635   0.652   3.234   7.217 -0.6947 -0.1282  1.1626
  732WAT    EPW 3636   0.712   3.183   7.226 -0.2669  0.0593 -0.0192
  733WAT      O 3637   6.543   7.479   2.143 -0.2600  0.1282  0.2017
  733WAT     H1 3638   6.459   7.460   2.158 -0.2887 -1.7457 -1.7883
  733WAT     H2 3639   6.586   7.412   2.178  0.1337 -0.4998 -1.3719
  733WAT    EPW 3640   6.537   7.466   2.150 -0.5899  0.6080  0.0063
  734WAT      O 3641   0.245   0.676   0.044 -0.2408  0.0611  0.1930
  734WAT     H1 3642   0.227   0.716  -0.031 -1.2702 -3.0079 -1.3535
  734WAT     H2 3643   0.173   0.689   0.092  0.0920  1.3330  0.3835
  734WAT    EPW 3644   0.231   0.684   0.040  0.5492  0.8260  0.5310
  735WAT      O 3645   2.402   3.892   0.681  0.0410  0.1448 -0.1306
  735WAT     H1 3646   2.382   3.890   0.766 -1.2319  0.4177 -0.3987
  735WAT     H2 3647   2.349   3.831   0.647  0.1633  0.4129 -0.8013
  735WAT    EPW 3648   2.391   3.883   0.689  0.4370 -0.0546 -0.1064
  736WAT      O 3649   2.059   4.916   6.326  0.3909 -0.3104  0.3247
  736WAT     H1 3650   1.984   4.959   6.315 -0.0049 -0.7276  1.2805
  736WAT     H2 3651   2.106   4.937   6.255 -0.6240 -0.0486 -0.2789
  736WAT    EPW 3652   2.055   4.926   6.314 -0.5845 -0.0110  0.4080
  737WAT      O 3653   0.116   5.064   5.284 -0.1495  0.0171  0.2771
  737WAT     H1 3654   0.133   5.022   5.210 -2.0171 -1.5920  0.6759
  737WAT     H2 3655   0.064   5.129   5.260  1.3698  1.1548 -0.1104
  737WAT    EPW 3656   0.111   5.068   5.270  0.6669  0.4436  0.0964
  738WAT      O 3657   5.304   6.459   6.526 -0.0845 -0.4085 -0.2583
  738WAT     H1 3658   5.288   6.460   6.440  0.0103 -0.9390 -0.2865
  738WAT     H2 3659   5.288   6.541   6.551 -2.3726 -0.7476 -0.3669
  738WAT    EPW 3660   5.299   6.471   6.517 -0.1670  0.2097  0.4995
  739WAT      O 3661   7.487   3.443   2.890 -0.3586 -0.2806  0.7112
  739WAT     H1 3662   7.530   3.468   2.818 -1.4699  0.4238  0.2604
  739WAT     H2 3663   7.541   3.386   2.928  0.3010 -0.5959 -0.6346
  739WAT    EPW 3664   7.501   3.438   2.885 -0.3436  0.5720  0.7718
  740WAT      O 3665   5.292   5.200   2.352  0.7206  0.4483 -0.3546
  740WAT     H1 3666   5.245   5.219   2.280  1.6057 -1.4512 -1.5080
  740WAT     H2 3667   5.294   5.113   2.353  0.1105  0.3654  2.4494
  740WAT    EPW 3668   5.285   5.190   2.341 -0.5492 -0.0072  0.0907
  741WAT      O 3669   2.798   7.350   5.092 -0.4178  0.6250  0.3137
  741WAT     H1 3670   2.878   7.377   5.072 -1.1323  0.7633 -2.9090
  741WAT     H2 3671   2.805   7.263   5.093 -0.1343  0.6484  0.5926
  741WAT    EPW 3672   2.811   7.341   5.089 -0.1997  0.1877 -0.2266
  742WAT      O 3673   3.256   5.687   5.325  0.3681 -0.1706  0.0512
  742WAT     H1 3674   3.326   5.683   5.273  0.4916 -0.7692  0.2596
  742WAT     H2 3675   3.283   5.649   5.398  0.5144  1.5342  0.9346
  742WAT    EPW 3676   3.270   5.681   5.328  0.2645 -0.3719 -0.0691
  743WAT      O 3677   4.592   3.655   2.756  0.5176 -0.3703 -0.0880
  743WAT     H1 3678   4.635   3.626   2.686 -0.0807 -1.3236 -0.0813
  743WAT     H2 3679   4.590   3.585   2.809 -2.0084 -0.7623 -0.5555
  743WAT    EPW 3680   4.598   3.640   2.753 -0.2819  0.0896  0.2430
  744WAT      O 3681   1.203   4.372   1.818 -0.4055  0.1947 -0.1797
  744WAT     H1 3682   1.269   4.368   1.760  0.0495  2.0271  0.1719
  744WAT     H2 3683   1.231   4.428   1.878 -1.8429  0.1425  0.5815
  744WAT    EPW 3684   1.217   4.379   1.818  0.2605 -0.2134  0.0486
  745WAT      O 3685   4.212   4.464   5.190 -0.1244  0.2441  0.5237
  745WAT     H1 3686   4.233   4.468   5.106  0.3901 -0.7349  0.5949
  745WAT     H2 3687   4.128   4.486   5.191  0.5972  3.5967  0.1588
  745WAT    EPW 3688   4.203   4.468   5.178  0.1822 -0.3344  0.2323
  746WAT      O 3689   1.921   3.107   4.822 -0.3896  0.0052 -0.4912
  746WAT     H1 3690   2.004   3.085   4.839 -0.3570 -0.5472 -1.2988
  746WAT     H2 3691   1.890   3.132   4.899  0.5439  0.2590 -0.1849
  746WAT    EPW 3692   1.929   3.108   4.836  0.5750  0.2481  0.5592
  747WAT      O 3693   1.670   5.366   2.516  0.8274  0.3647 -0.2891
  747WAT     H1 3694   1.669   5.334   2.434  0.2331 -1.3794  0.3566
  747WAT     H2 3695   1.590   5.400   2.525  0.1970 -1.1609  0.1676
  747WAT    EPW 3696   1.658   5.366   2.505  0.2333  0.5497  0.0645
  748WAT      O 3697   6.101   3.710   3.036 -0.1392 -0.1236 -0.1864
  748WAT     H1 3698   6.142   3.782   3.008 -0.4139 -0.2997 -1.0705
  748WAT     H2 3699   6.059   3.682   2.965 -1.4136 -0.2083  0.5806
  748WAT    EPW 3700   6.101   3.716   3.022  0.1732 -0.0730 -0.1092
  749WAT      O 3701   4.807   1.776   3.379 -0.0236 -0.3425  0.0603
  749WAT     H1 3702   4.735   1.750   3.421 -0.0443 -0.4963 -0.0649
  749WAT     H2 3703   4.805   1.728   3.305  1.3364 -1.9955  1.0107
  749WAT    EPW 3704   4.796   1.765   3.374 -0.2334  1.1296  0.5342
  750WAT      O 3705   3.094   6.146   6.438 -0.1941 -0.0536  0.9882
  750WAT     H1 3706   3.132   6.224   6.448 -0.0818  0.1879 -0.8851
  750WAT     H2 3707   3.034   6.143   6.501  0.6334  1.0163  1.8580
  750WAT    EPW 3708   3.091   6.157   6.449 -0.0606  0.7848 -0.0444
  751WAT      O 3709   0.839   0.963   6.624  0.5754  0.2858  0.0186
  751WAT     H1 3710   0.803   1.043   6.619  1.0602  0.6449  1.8772
  751WAT     H2 3711   0.905   0.973   6.680  0.7551 -1.3960  0.1514
  751WAT    EPW 3712   0.843   0.976   6.631 -0.1632  0.1921  0.1200
  752WAT      O 3713   5.918   6.006   4.751  0.4761 -0.1981  0.2624
  752WAT     H1 3714   5.973   5.939   4.742  0.5662 -0.0651 -0.1819
  752WAT     H2 3715   5.840   5.972   4.731  0.9025  0.6067 -3.6854
  752WAT    EPW 3716   5.914   5.991   4.747 -0.1887  0.0184 -0.3485
  753WAT      O 3717   5.880   1.175   6.422  0.2370 -0.3458  0.0564
  753WAT     H1 3718   5.899   1.186   6.338  1.9858  0.2826  0.5004
  753WAT     H2 3719   5.807   1.127   6.420 -1.0003  1.4489 -1.8159
  753WAT    EPW 3720   5.872   1.169   6.409  0.3742  0.2496 -0.5616
  754WAT      O 3721   6.583   5.879   7.398 -0.1966  0.5096  0.1691
  754WAT     H1 3722   6.548   5.957   7.382 -0.6191  0.4402  0.7304
  754WAT     H2 3723   6.665   5.898   7.422 -0.9397  0.9703  2.4983
  754WAT    EPW 3724   6.590   5.893   7.399 -0.1375  0.7666 -0.6501
  755WAT      O 3725   0.631   7.511   7.382 -0.1998 -0.2593  0.4672
  755WAT     H1 3726   0.578   7.539   7.319  0.3778 -1.5608 -0.6606
  755WAT     H2 3727   0.623   7.571   7.444  0.3065  1.9183 -1.4157
  755WAT    EPW 3728   0.622   7.524   7.382  0.3953  0.0760  0.6064
  756WAT      O 3729   5.669   4.137   3.473  0.3088 -0.0704 -0.7694
  756WAT     H1 3730   5.727   4.121   3.409  1.1484 -2.5220  0.4908
  756WAT     H2 3731   5.713   4.118   3.546 -0.9017  1.8095  0.5406
  756WAT    EPW 3732   5.684   4.132   3.474  0.3304 -0.1402 -0.1475
  757WAT      O 3733   0.567   2.024   4.587  0.4211  0.7006  0.5494
  757WAT     H1 3734   0.538   2.008   4.668 -0.8464  0.9133  0.1580
  757WAT     H2 3735   0.624   2.088   4.598  0.4136  0.5866  1.3028
  757WAT    EPW 3736   0.571   2.031   4.601 -0.0968 -0.0201  0.5253
  758WAT      O 3737   5.099   4.134   1.429  0.5420 -0.0339 -0.3207
  758WAT     H1 3738   5.140   4.185   1.486  1.0728  0.2704 -0.9563
  758WAT     H2 3739   5.025   4.177   1.412 -1.0765 -1.4873  2.2851
  758WAT    EPW 3740   5.094   4.148   1.435  0.1614  0.2241 -0.0925
  759WAT      O 3741   2.339   5.459   5.427 -0.2410  0.6030  0.1869
  759WAT     H1 3742   2.411   5.410   5.421 -0.3349  0.4862 -0.0024
  759WAT     H2 3743   2.275   5.402   5.413 -0.3192  0.9420 -0.9480
  759WAT    EPW 3744   2.340   5.443   5.424  0.1800 -0.2494  0.1052
  760WAT      O 3745   3.099   4.312   1.315  0.2623 -0.0012  0.2511
  760WAT     H1 3746   3.170   4.282   1.357  1.8348  1.5022 -1.1583
  760WAT     H2 3747   3.119   4.300   1.231 -0.5836  1.6360 -0.2174
  760WAT    EPW 3748   3.113   4.306   1.309  0.3291 -0.7426  0.2405
  761WAT      O 3749   1.083   0.580   7.136 -0.0772 -0.5180  0.4076
  761WAT     H1 3750   1.136   0.639   7.171 -1.1582 -0.4145  1.9199
  761WAT     H2 3751   1.022   0.568   7.196 -1.8628 -0.5686 -1.3128
  761WAT    EPW 3752   1.082   0.587   7.150 -0.5438  0.0112  0.2025
  762WAT      O 3753   0.057   2.306   4.413 -0.0455  0.0243  0.8187
  762WAT     H1 3754   0.138   2.336   4.402 -0.2152  0.3516  0.4080
  762WAT     H2 3755   0.062   2.257   4.485  0.5234  0.0089  0.7707
  762WAT    EPW 3756   0.070   2.304   4.422 -0.3806  0.3789  0.0818
  763WAT      O 3757   5.949   3.914   4.095  0.0365  0.0913  0.9549
  763WAT     H1 3758   5.944   3.861   4.026 -0.1527  1.3597 -0.0425
  763WAT     H2 3759   6.031   3.944   4.091 -0.3541  1.1528  0.4940
  763WAT    EPW 3760   5.960   3.911   4.084  0.5534 -0.1158 -0.8775
  764WAT      O 3761   7.559   4.008   6.870 -0.2287 -0.0826 -0.8595
  764WAT     H1 3762   7.628   3.956   6.860 -1.3737 -1.1777 -4.6869
  764WAT     H2 3763   7.515   3.971   6.935  1.9025 -0.2611  0.5905
  764WAT    EPW 3764   7.563   3.995   6.878  0.1376 -0.3903  0.4667
  765WAT      O 3765   3.737   2.334   6.005  0.1143  0.8668  0.4452
  765WAT     H1 3766   3.731   2.347   5.919 -1.3783  0.3542  0.4325
  765WAT     H2 3767   3.760   2.412   6.036 -0.1719  1.2765 -0.3446
  765WAT    EPW 3768   3.739   2.347   5.997  0.4295 -0.0921 -0.2994
  766WAT      O 3769   2.834   1.595   4.164  0.2225  0.4937  0.0688
  766WAT     H1 3770   2.762   1.612   4.211 -1.1763  2.0145 -2.3869
  766WAT     H2 3771   2.824   1.512   4.141 -1.8033  1.1355 -1.7135
  766WAT    EPW 3772   2.822   1.586   4.167 -0.4643 -0.2296  0.5634
  767WAT      O 3773   0.657   1.040   4.342 -0.4614 -0.5467 -0.3113
  767WAT     H1 3774   0.614   1.041   4.418  0.1546 -1.0129  0.0546
  767WAT     H2 3775   0.686   1.122   4.333 -1.7408 -0.1168 -0.7617
  767WAT    EPW 3776   0.655   1.052   4.352  0.2267 -0.1815  0.0453
  768WAT      O 3777   2.582   5.528   6.080  0.1565  0.5335  0.5412
  768WAT     H1 3778   2.592   5.494   6.159 -1.0202  1.6608  1.2039
  768WAT     H2 3779   2.499   5.509   6.060  0.2221  0.9068 -0.1065
  768WAT    EPW 3780   2.571   5.520   6.088  0.3630  0.0790 -0.6302
  769WAT      O 3781   1.497   3.792   3.140  0.2783 -0.4982 -0.0790
  769WAT     H1 3782   1.527   3.713   3.118 -0.3427 -0.6298 -0.4522
  769WAT     H2 3783   1.504   3.793   3.227  0.1690 -1.0107 -0.0634
  769WAT    EPW 3784   1.503   3.780   3.150 -0.3973  0.1908 -0.1388
  770WAT      O 3785   5.572   7.228   3.165 -0.1890 -0.2285  0.2494
  770WAT     H1 3786   5.580   7.268   3.242 -1.2157 -1.3227  0.9753
  770WAT     H2 3787   5.647   7.246   3.125 -0.7663  2.7673  0.2974
  770WAT    EPW 3788   5.585   7.236   3.171 -0.1628 -0.1216  0.2534
  771WAT      O 3789   5.467   5.003   7.415 -0.7229 -0.6613 -0.1696
  771WAT     H1 3790   5.452   4.960   7.489  0.1547  1.0254  1.0754
  771WAT     H2 3791   5.472   5.087   7.441  1.1677 -0.1731 -1.8543
  771WAT    EPW 3792   5.466   5.009   7.430 -0.5266  0.2787 -0.4879
  772WAT      O 3793   0.641   2.891   7.252  0.1745 -0.3006  0.2324
  772WAT     H1 3794   0.655   2.976   7.235  0.8509 -0.5112 -0.3052
  772WAT     H2 3795   0.554   2.885   7.254  0.1161  0.4280  0.4035
  772WAT    EPW 3796   0.630   2.903   7.250 -0.1079  0.3805  0.6424
  773WAT      O 3797   1.551   1.238   7.075 -0.0246 -0.0918 -0.6156
  773WAT     H1 3798   1.484   1.184   7.091 -1.0973  1.1766 -0.6645
  773WAT     H2 3799   1.557   1.237   6.988 -0.0753 -0.1018 -0.6194
  773WAT    EPW 3800   1.542   1.229   7.065 -0.0075  0.1895 -0.2211
  774WAT      O 3801   7.372   3.855   2.770 -0.2658  0.4893  0.3891
  774WAT     H1 3802   7.341   3.793   2.823  0.0563 -0.0333 -0.0198
  774WAT     H2 3803   7.305   3.910   2.762 -0.2609  0.6771  1.4816
  774WAT    EPW 3804   7.358   3.854   2.777  0.1440 -0.9723 -0.4150
  775WAT      O 3805   7.023   4.236   2.236  0.2921  0.6400 -0.0469
  775WAT     H1 3806   6.973   4.284   2.183 -0.8876  0.1182  0.5629
  775WAT     H2 3807   7.027   4.158   2.196  0.4136  0.6111  0.0202
  775WAT    EPW 3808   7.016   4.231   2.222 -0.2593 -0.2468  0.5490
  776WAT      O 3809   6.992   3.606   3.962  0.0126  0.7836  0.5177
  776WAT     H1 3810   6.938   3.673   3.953 -0.9050  0.1823  1.3498
  776WAT     H2 3811   6.942   3.537   3.944  1.3521  0.3648 -2.0247
  776WAT    EPW 3812   6.977   3.606   3.958  0.4025  0.8088  0.1830
  777WAT      O 3813   5.994   3.408   0.212  0.2220 -0.6373 -0.6006
  777WAT     H1 3814   6.009   3.486   0.246  0.2144 -1.3504  1.1187
  777WAT     H2 3815   6.038   3.353   0.264 -1.0972 -1.9167 -0.7560
  777WAT    EPW 3816   6.003   3.411   0.224 -0.4208  0.1788  0.7471
  778WAT      O 3817   6.762   2.743   2.526 -0.5541  0.2179 -0.0709
  778WAT     H1 3818   6.758   2.796   2.596  0.5298  0.5970 -0.2808
  778WAT     H2 3819   6.810   2.676   2.554 -1.8614 -0.6567  0.1697
  778WAT    EPW 3820   6.769   2.741   2.541  0.2374  0.1788 -0.3729
  779WAT      O 3821   5.214   3.148   0.581  0.0858  0.6776 -0.1652
  779WAT     H1 3822   5.236   3.201   0.645 -0.5675 -1.8821  2.4027
  779WAT     H2 3823   5.210   3.200   0.511 -1.0532  4.0538  2.1542
  779WAT    EPW 3824   5.217   3.163   0.580  0.0835 -0.3328  0.5394
  780WAT      O 3825   4.498   0.175   1.185 -0.5098  0.0292 -0.3838
  780WAT     H1 3826   4.412   0.161   1.189 -0.4015 -0.8044 -0.6958
  780WAT     H2 3827   4.519   0.153   1.103 -0.4288  2.9677 -1.2581
  780WAT    EPW 3828   4.488   0.170   1.173 -0.4466 -0.0091  0.3535
  781WAT      O 3829   6.467   1.039   1.361  0.4988  0.0138 -0.1687
  781WAT     H1 3830   6.423   0.993   1.301 -0.0619  0.1754  0.1127
  781WAT     H2 3831   6.427   1.019   1.436 -1.2795  2.6606 -0.2838
  781WAT    EPW 3832   6.455   1.029   1.363 -0.6563  0.3269  0.1212
  782WAT      O 3833   5.388   5.086   0.227  0.4873 -0.0671 -0.1771
  782WAT     H1 3834   5.386   5.015   0.176 -1.7549  1.0349 -1.8021
  782WAT     H2 3835   5.331   5.067   0.291  1.5226 -0.5345  0.6262
  782WAT    EPW 3836   5.379   5.072   0.229 -0.2590  0.2412  0.5228
  783WAT      O 3837   0.760   6.228   2.844 -0.2427  0.1976 -0.0386
  783WAT     H1 3838   0.700   6.291   2.832 -0.6114 -0.5657 -3.1662
  783WAT     H2 3839   0.835   6.272   2.847 -0.5561  0.8824 -1.3839
  783WAT    EPW 3840   0.762   6.244   2.843 -0.2574 -1.3303  0.2423
  784WAT      O 3841   1.764   5.195   6.949 -0.1363  0.0564 -0.5987
  784WAT     H1 3842   1.755   5.188   6.863  0.9730  1.0761 -0.8244
  784WAT     H2 3843   1.751   5.114   6.978  1.4221 -0.7049 -1.9219
  784WAT    EPW 3844   1.761   5.182   6.941 -0.4907  0.3490 -0.2793
  785WAT      O 3845   3.890   1.182   5.041 -0.6962 -0.2591 -0.6397
  785WAT     H1 3846   3.942   1.151   5.104 -0.1684 -1.1430 -1.4705
  785WAT     H2 3847   3.844   1.111   5.016 -2.3858  0.5158  0.1259
  785WAT    EPW 3848   3.891   1.167   5.047 -0.1251  0.3048 -0.2303
  786WAT      O 3849   7.311   5.313   0.488 -0.0016 -0.5561  0.2455
  786WAT     H1 3850   7.325   5.227   0.479  1.9409 -0.0743 -3.7994
  786WAT     H2 3851   7.229   5.323   0.459  0.4748 -0.9366 -1.3676
  786WAT    EPW 3852   7.301   5.302   0.482 -0.3958  0.5445 -0.1850
  787WAT      O 3853   0.819   6.742   5.091  0.2606  0.2489  0.9056
  787WAT     H1 3854   0.773   6.808   5.123  0.7701  0.2769  1.6202
  787WAT     H2 3855   0.769   6.672   5.106 -0.3597  0.4771 -0.0170
  787WAT    EPW 3856   0.805   6.741   5.098  0.3221  0.6214 -0.3234
  788WAT      O 3857   4.001   3.863   6.661 -0.3856 -0.7566 -0.1885
  788WAT     H1 3858   3.948   3.858   6.591  0.4450  1.4613 -1.0666
  788WAT     H2 3859   4.016   3.948   6.668 -0.8602 -0.8377  3.0937
  788WAT    EPW 3860   3.995   3.875   6.652  0.2196  0.2595 -0.1705
  789WAT      O 3861   3.942   5.899   0.223 -0.4368  0.4230 -0.1860
  789WAT     H1 3862   4.010   5.937   0.183 -0.1690 -2.0160 -2.2949
  789WAT     H2 3863   3.874   5.945   0.194  0.0793  1.2056 -0.2115
  789WAT    EPW 3864   3.942   5.911   0.213 -0.0246  0.0981 -0.7366
  790WAT      O 3865   3.951   4.882   6.867 -0.2040  0.6031 -0.0621
  790WAT     H1 3866   3.994   4.838   6.804 -1.8255 -1.1508 -0.0560
  790WAT     H2 3867   3.870   4.848   6.863 -0.8053  1.6822  1.8404
  790WAT    EPW 3868   3.945   4.870   6.857  0.2206  0.1955 -0.0337
  791WAT      O 3869   2.380   3.055   2.531 -0.6443  0.3161  0.3924
  791WAT     H1 3870   2.367   3.140   2.547  1.2833  0.3761  2.1659
  791WAT     H2 3871   2.415   3.026   2.606  1.2212 -1.4478 -1.0476
  791WAT    EPW 3872   2.383   3.064   2.545  0.1047 -0.3857 -0.2744
  792WAT      O 3873   4.435   1.697   7.345  0.4125  0.3726  0.2826
  792WAT     H1 3874   4.439   1.628   7.398 -0.2750  0.5037  0.5217
  792WAT     H2 3875   4.440   1.765   7.399  0.5405  0.5094  0.0988
  792WAT    EPW 3876   4.436   1.697   7.361  0.1279  0.3701  0.2587
  793WAT      O 3877   4.612   4.503   3.869 -0.3691  0.0062 -0.0804
  793WAT     H1 3878   4.625   4.512   3.783 -3.4865 -0.5115 -0.7141
  793WAT     H2 3879   4.603   4.586   3.897  1.9915  0.2770  0.1076
  793WAT    EPW 3880   4.613   4.517   3.861 -0.3571 -0.5969 -0.3306
  794WAT      O 3881   7.438   2.024   1.462  0.6258 -0.3699 -0.2373
  794WAT     H1 3882   7.431   1.980   1.537 -1.3349  1.6306  0.9015
  794WAT     H2 3883   7.356   2.050   1.447  1.5965  2.6875 -0.8628
  794WAT    EPW 3884   7.425   2.021   1.471 -0.5776 -0.0857 -0.3075
  795WAT      O 3885   0.032   1.868   3.174 -0.0859 -0.1092  0.1099
  795WAT     H1 3886  -0.007   1.906   3.242  1.2426  0.3599  0.6415
  795WAT     H2 3887   0.030   1.783   3.194 -1.0800 -0.1382 -0.0315
  795WAT    EPW 3888   0.026   1.861   3.187 -0.3210 -0.4855  0.8735
  796WAT      O 3889   6.736   0.853   6.568  0.4948 -0.3816  0.3065
  796WAT     H1 3890   6.686   0.858   6.497 -0.0162 -0.2040  0.6697
  796WAT     H2 3891   6.736   0.768   6.588  1.3894 -0.5637 -0.4225
  796WAT    EPW 3892   6.729   0.842   6.561 -0.2397 -0.9283 -0.3713
  797WAT      O 3893   4.223   5.805   6.479  0.1395  0.1285 -0.0446
  797WAT     H1 3894   4.184   5.728   6.466  1.1444 -1.4480  4.5364
  797WAT     H2 3895   4.304   5.793   6.447  0.3854 -0.8929  0.9121
  797WAT    EPW 3896   4.229   5.792   6.472  0.2601  0.2036 -0.2914
  798WAT      O 3897   6.775   3.416   2.846  0.2727  0.2648 -0.0396
  798WAT     H1 3898   6.848   3.433   2.889 -0.0171  0.3703  0.4073
  798WAT     H2 3899   6.723   3.484   2.864  0.2166  0.4048 -0.7022
  798WAT    EPW 3900   6.778   3.428   2.855 -0.1286 -0.2335  1.1710
  799WAT      O 3901   2.360   3.929   2.889  0.0786  0.3849 -0.8711
  799WAT     H1 3902   2.286   3.971   2.908  0.0625 -0.2771  0.6796
  799WAT     H2 3903   2.334   3.848   2.871  0.3705  0.2812 -0.8365
  799WAT    EPW 3904   2.345   3.923   2.889  0.2990 -1.1576  0.1030
  800WAT      O 3905   6.126   3.322   4.804 -0.0434  0.8205 -0.2573
  800WAT     H1 3906   6.192   3.378   4.794  0.4135  0.2439 -0.4950
  800WAT     H2 3907   6.122   3.312   4.891  0.8966  0.0278 -0.2887
  800WAT    EPW 3908   6.135   3.329   4.816 -0.4833  0.0741  0.7808
  801WAT      O 3909   1.509   6.129   1.086  0.0322  0.9226 -0.0828
  801WAT     H1 3910   1.472   6.173   1.021 -0.7671  0.7934  0.2702
  801WAT     H2 3911   1.579   6.176   1.106  2.2823 -0.6836 -3.2067
  801WAT    EPW 3912   1.514   6.142   1.079  0.7474  0.5650 -0.1105
  802WAT      O 3913   5.649   2.261   3.357 -0.0976  0.0043  0.0728
  802WAT     H1 3914   5.585   2.202   3.354  0.1361 -0.2304 -2.8893
  802WAT     H2 3915   5.718   2.213   3.383 -0.1584 -0.7996 -1.1780
  802WAT    EPW 3916   5.650   2.245   3.361 -0.0321 -0.0034 -0.2215
  803WAT      O 3917   3.381   1.861   5.124 -0.1667  0.5847 -0.0588
  803WAT     H1 3918   3.357   1.782   5.152 -0.7097  0.7902  0.0674
  803WAT     H2 3919   3.334   1.916   5.173  0.8279  1.0186  0.4655
  803WAT    EPW 3920   3.371   1.858   5.136 -0.0787  1.1448 -0.3869
  804WAT      O 3921   2.910   7.166   6.796 -0.2613 -0.6395  0.1439
  804WAT     H1 3922   2.855   7.167   6.864  0.1920  0.7031  0.5286
  804WAT     H2 3923   2.984   7.136   6.830  0.2271  0.8819  0.4989
  804WAT    EPW 3924   2.913   7.162   6.811  0.6811  0.3035 -0.4213
  805WAT      O 3925   2.369   3.821   0.171  0.1420  0.0059 -0.1671
  805WAT     H1 3926   2.299   3.861   0.204  0.1955  1.6386 -1.8818
  805WAT     H2 3927   2.427   3.826   0.236 -1.3745 -1.7857  1.4681
  805WAT    EPW 3928   2.367   3.828   0.186  0.1549 -0.2402 -0.3751
  806WAT      O 3929   0.556   4.369   3.289 -0.4155 -0.3290 -0.5129
  806WAT     H1 3930   0.608   4.350   3.222  1.6564 -1.2819  1.2689
  806WAT     H2 3931   0.572   4.306   3.346 -0.6263  1.4898  1.6824
  806WAT    EPW 3932   0.566   4.357   3.287 -0.2877  0.0817 -0.3115
  807WAT      O 3933   0.852   6.919   5.868 -0.1786 -0.2530 -0.0545
  807WAT     H1 3934   0.890   6.902   5.945  0.3989 -0.2368 -0.3351
  807WAT     H2 3935   0.916   6.955   5.821 -0.4309 -0.6134 -0.6752
  807WAT    EPW 3936   0.867   6.922   5.872  0.2460 -0.1437  1.0378
  808WAT      O 3937   2.465   0.190   5.986 -0.1725  0.2349  0.0549
  808WAT     H1 3938   2.450   0.213   6.069  2.8747 -0.6071  0.9760
  808WAT     H2 3939   2.491   0.107   5.992  1.4754  0.5634 -1.5005
  808WAT    EPW 3940   2.467   0.181   5.999 -0.0159  0.4308 -0.1131
  809WAT      O 3941   4.917   5.540   5.267 -0.0317  0.1380 -0.3871
  809WAT     H1 3942   4.961   5.470   5.296 -2.2372 -0.1935  2.6392
  809WAT     H2 3943   4.930   5.538   5.181  1.9059 -2.6292 -0.1689
  809WAT    EPW 3944   4.926   5.530   5.259  0.1664 -0.1139 -0.6403
  810WAT      O 3945   3.617   6.974   7.447 -0.3643 -0.1402 -0.5156
  810WAT     H1 3946   3.623   6.991   7.533 -0.5989  0.4987 -0.6226
  810WAT     H2 3947   3.661   6.900   7.438  0.4169  0.2448  0.0257
  810WAT    EPW 3948   3.624   6.966   7.458  0.1321 -0.1287  0.0823
  811WAT      O 3949   0.368   5.675   2.669  0.1594  0.2559 -0.1771
  811WAT     H1 3950   0.388   5.609   2.721  1.8138 -0.4353 -1.5885
  811WAT     H2 3951   0.290   5.653   2.636 -0.4404  0.2406  1.2026
  811WAT    EPW 3952   0.360   5.662   2.672 -0.4525 -0.0222  0.4393
  812WAT      O 3953   4.593   0.098   6.941 -0.1972 -0.2882 -0.4176
  812WAT     H1 3954   4.520   0.131   6.907 -0.2142  0.6374  0.4747
  812WAT     H2 3955   4.619   0.039   6.881 -0.7451  0.5778 -1.5443
  812WAT    EPW 3956   4.586   0.094   6.927 -0.2499  0.3896 -0.4162
  813WAT      O 3957   5.287   2.872   0.812 -0.7119 -0.5100 -0.2891
  813WAT     H1 3958   5.225   2.915   0.769 -0.9600 -0.9475 -0.3767
  813WAT     H2 3959   5.359   2.918   0.797 -0.7190 -0.8735 -1.4948
  813WAT    EPW 3960   5.288   2.885   0.804 -0.0705  0.2851  0.5742
  814WAT      O 3961   1.851   4.644   3.115 -0.6065  0.5188 -0.4577
  814WAT     H1 3962   1.851   4.730   3.131 -0.3832  0.5208 -0.4691
  814WAT     H2 3963   1.860   4.608   3.194  2.2191  0.5503 -0.6530
  814WAT    EPW 3964   1.852   4.651   3.129 -0.1847  0.1828 -0.0449
  815WAT      O 3965   1.557   3.051   1.177 -0.4982 -0.1993 -0.0463
  815WAT     H1 3966   1.570   2.973   1.140  0.0550 -0.3470  0.4451
  815WAT     H2 3967   1.471   3.054   1.189 -0.7402 -0.0233 -1.5971
  815WAT    EPW 3968   1.546   3.040   1.173 -0.2376 -0.4389  0.9310
  816WAT      O 3969   5.933   0.869   3.815 -0.0081  0.4012 -0.1330
  816WAT     H1 3970   5.918   0.819   3.745 -0.0984 -0.5956  0.5561
  816WAT     H2 3971   5.879   0.835   3.875  2.3625 -0.9685  1.3986
  816WAT    EPW 3972   5.923   0.856   3.814 -0.1185  0.6788 -0.3022
  817WAT      O 3973   5.809   4.687   2.176  0.3508  0.2575 -0.4611
  817WAT     H1 3974   5.817   4.610   2.136 -1.4172  0.0639 -0.5490
  817WAT     H2 3975   5.865   4.682   2.243  0.7474 -0.8385 -0.8570
  817WAT    EPW 3976   5.818   4.675   2.180  0.3005  0.1899  0.1101
  818WAT      O 3977   5.303   5.504   6.396 -0.0961  0.5046  0.0848
  818WAT     H1 3978   5.363   5.527   6.336  0.3551 -0.6091  0.0744
  818WAT     H2 3979   5.254   5.575   6.404 -0.0618  0.7551 -1.4901
  818WAT    EPW 3980   5.305   5.518   6.388  0.3305 -0.1707  0.3849
  819WAT      O 3981   5.251   0.311   5.206  0.7032 -0.1135  0.4683
  819WAT     H1 3982   5.330   0.317   5.170  0.4453 -0.7276 -0.2334
  819WAT     H2 3983   5.245   0.227   5.230  0.0361 -0.2320 -0.0597
  819WAT    EPW 3984   5.262   0.299   5.204  0.2916  0.5091 -0.0094
  820WAT      O 3985   2.736   3.029   2.127 -0.0900  0.3247 -0.1585
  820WAT     H1 3986   2.741   3.085   2.060 -0.9833  0.5628 -0.0431
  820WAT     H2 3987   2.651   3.011   2.132  0.2220 -1.3367 -0.4090
  820WAT    EPW 3988   2.724   3.035   2.118 -0.2031  0.6704 -0.0159
  821WAT      O 3989   6.750   3.346   1.349 -0.7210  0.2348  0.3601
  821WAT     H1 3990   6.717   3.322   1.426 -0.9419  1.1223  0.5531
  821WAT     H2 3991   6.784   3.425   1.365 -0.9047  0.4971 -0.4935
  821WAT    EPW 3992   6.750   3.354   1.363 -0.3176 -0.2972 -0.7254
  822WAT      O 3993   1.569   6.265   3.059  0.8530  0.0076 -0.3277
  822WAT     H1 3994   1.578   6.235   2.977 -2.0872  1.4380 -1.3579
  822WAT     H2 3995   1.606   6.344   3.056  1.6611 -0.3521  0.0486
  822WAT    EPW 3996   1.576   6.272   3.046 -0.4305  0.5626  0.4829
  823WAT      O 3997   5.668   5.459   7.373  0.1030  0.1694 -0.9063
  823WAT     H1 3998   5.723   5.459   7.305  2.2917  0.8095  0.7298
  823WAT     H2 3999   5.623   5.533   7.362  1.4832  1.0446 -0.9201
  823WAT    EPW 4000   5.670   5.470   7.361  0.0030 -0.2726  0.0311
  824WAT      O 4001   2.750   2.762   1.126 -0.3294  0.2173 -0.7275
  824WAT     H1 4002   2.688   2.701   1.120  0.4077 -0.4622 -1.9400
  824WAT     H2 4003   2.792   2.743   1.200 -1.2448  0.3889 -0.1505
  824WAT    EPW 4004   2.747   2.750   1.136 -0.2930  0.5374  0.0929
  825WAT      O 4005   2.120   1.868   4.451  0.2352  0.5497 -0.1255
  825WAT     H1 4006   2.080   1.897   4.523  1.2936 -1.4395  1.3591
  825WAT     H2 4007   2.205   1.870   4.472  0.6347  0.5842 -1.5995
  825WAT    EPW 4008   2.127   1.873   4.465 -0.2460  0.2889  0.2899
  826WAT      O 4009   0.130   6.664   1.530  0.2063 -0.0146 -0.4347
  826WAT     H1 4010   0.086   6.617   1.589  2.1503  0.0369  1.1474
  826WAT     H2 4011   0.103   6.632   1.454 -1.5332 -0.8793  0.4825
  826WAT    EPW 4012   0.119   6.653   1.527  0.1075 -0.3875 -0.2749
  827WAT      O 4013   0.227   1.552   1.787 -0.1144  0.2525 -0.0586
  827WAT     H1 4014   0.267   1.536   1.863 -0.8839 -0.8924  0.1285
  827WAT     H2 4015   0.142   1.549   1.808 -0.3479  2.2368 -0.5152
  827WAT    EPW 4016   0.220   1.550   1.801  0.5047  0.4728  0.3695
  828WAT      O 4017   2.280   3.511   2.430 -0.7540 -0.4175  0.3819
  828WAT     H1 4018   2.340   3.492   2.370  1.4028 -0.7273  2.4749
  828WAT     H2 4019   2.253   3.590   2.408  0.4404 -0.2682 -0.6366
  828WAT    EPW 4020   2.285   3.520   2.418 -0.0834 -0.5360  0.6100
  829WAT      O 4021   2.085   4.023   7.063 -0.2989 -0.0194 -0.2700
  829WAT     H1 4022   2.092   4.057   6.983 -0.4620 -0.0602 -0.3023
  829WAT     H2 4023   2.168   4.008   7.087 -0.1828  0.9888 -0.0013
  829WAT    EPW 4024   2.099   4.026   7.055 -0.1985 -0.5586 -0.2127
  830WAT      O 4025   3.580   1.074   1.124  0.2257  0.2525 -0.3326
  830WAT     H1 4026   3.656   1.114   1.110  0.1896  1.2004  1.8350
  830WAT     H2 4027   3.577   1.066   1.211 -2.3140  0.5441 -0.3416
  830WAT    EPW 4028   3.591   1.078   1.135  0.5211  0.4715 -0.6428
  831WAT      O 4029   1.221   0.192   4.656  0.0855  0.6274  0.7034
  831WAT     H1 4030   1.281   0.128   4.658  0.5855  1.0738  0.2236
  831WAT     H2 4031   1.195   0.193   4.573 -1.3838 -0.2712  1.1181
  831WAT    EPW 4032   1.226   0.182   4.644 -0.2375  0.2391 -0.3425
  832WAT      O 4033   4.804   4.884   2.627  0.6299 -0.8052  0.2974
  832WAT     H1 4034   4.725   4.848   2.636  0.8203 -1.0941  0.8554
  832WAT     H2 4035   4.798   4.959   2.672  0.4247 -0.4256 -0.3491
  832WAT    EPW 4036   4.791   4.890   2.635 -0.9518  0.2218  0.0650
  833WAT      O 4037   6.728   2.372   2.988 -0.2816  0.1138  0.0517
  833WAT     H1 4038   6.657   2.322   2.992 -1.2735  1.4001 -0.8617
  833WAT     H2 4039   6.784   2.331   3.041 -1.0474 -1.9441 -0.6105
  833WAT    EPW 4040   6.726   2.358   2.996  0.1238  0.4655 -0.8664
  834WAT      O 4041   0.535   6.144   2.498  0.3054 -0.0207  0.4768
  834WAT     H1 4042   0.601   6.118   2.549  0.0291 -0.1794  0.7568
  834WAT     H2 4043   0.495   6.070   2.477  0.6369  0.0108 -0.2826
  834WAT    EPW 4044   0.539   6.129   2.503  0.0249 -0.3434 -0.1960
  835WAT      O 4045   2.360   1.249   5.853 -0.7097 -0.9220  0.6255
  835WAT     H1 4046   2.370   1.335   5.846 -0.0357 -1.1230 -2.5517
  835WAT     H2 4047   2.410   1.227   5.921  1.1770  0.9111 -0.0785
  835WAT    EPW 4048   2.369   1.258   5.862  0.3283  0.3832  0.3398
  836WAT      O 4049   2.405   1.649   4.712  0.1852  0.3467 -0.4288
  836WAT     H1 4050   2.474   1.597   4.703  1.4302  1.3753  2.0816
  836WAT     H2 4051   2.435   1.728   4.690  0.5952  1.1995  2.6711
  836WAT    EPW 4052   2.419   1.653   4.708 -0.6485 -0.0397  0.1041
  837WAT      O 4053   0.905   2.640   3.444  0.1134 -0.4943 -0.1027
  837WAT     H1 4054   0.879   2.580   3.501  0.0685 -0.3982 -0.0229
  837WAT     H2 4055   0.834   2.657   3.397  0.4285 -1.4387 -0.9669
  837WAT    EPW 4056   0.891   2.634   3.446 -0.1480  0.3423  0.0617
  838WAT      O 4057   5.894   5.185   2.352 -0.1067  0.3896 -0.6959
  838WAT     H1 4058   5.835   5.214   2.295 -2.2983 -0.1223  1.1757
  838WAT     H2 4059   5.937   5.257   2.376  0.1906  0.7504 -2.1865
  838WAT    EPW 4060   5.892   5.200   2.347  0.2325  0.4138 -0.1022
  839WAT      O 4061   4.768   4.489   6.379 -0.3537 -0.2014 -0.1518
  839WAT     H1 4062   4.700   4.507   6.327  0.0070 -1.4056 -1.0972
  839WAT     H2 4063   4.836   4.484   6.324 -0.2240 -3.0871  0.0961
  839WAT    EPW 4064   4.768   4.491   6.363 -0.3510  0.4227 -0.2562
  840WAT      O 4065   2.552   3.454   7.585 -0.3903 -0.4577  0.2029
  840WAT     H1 4066   2.477   3.496   7.598 -1.0236 -1.5698  0.2847
  840WAT     H2 4067   2.566   3.461   7.499 -0.9267 -0.7893  0.0873
  840WAT    EPW 4068   2.543   3.461   7.575 -0.0670 -0.5019 -0.0350
  841WAT      O 4069   5.351   0.147   4.073 -0.3760 -0.7143  0.0284
  841WAT     H1 4070   5.273   0.186   4.081 -1.0491 -2.2362  1.6744
  841WAT     H2 4071   5.332   0.063   4.079  1.2173 -1.2557 -1.6882
  841WAT    EPW 4072   5.337   0.141   4.075  0.0715  0.2727 -0.6865
  842WAT      O 4073   7.213   2.659   0.400  0.1514  0.8496  0.1335
  842WAT     H1 4074   7.233   2.600   0.461 -0.6110 -0.2721 -0.6641
  842WAT     H2 4075   7.271   2.642   0.337 -0.3028  0.6915 -0.2486
  842WAT    EPW 4076   7.225   2.648   0.400  0.2656 -0.4765  0.1223
  843WAT      O 4077   4.301   6.362   5.207 -0.4017  0.0793  0.4482
  843WAT     H1 4078   4.361   6.405   5.160 -0.9019  0.7191  0.3822
  843WAT     H2 4079   4.319   6.386   5.289 -1.2173  1.1437  0.3466
  843WAT    EPW 4080   4.312   6.372   5.212  0.2724 -0.0403  0.2047
  844WAT      O 4081   5.463   0.759   7.481 -0.5117 -0.4789 -0.4945
  844WAT     H1 4082   5.512   0.743   7.410  0.2681 -0.6256  0.0629
  844WAT     H2 4083   5.487   0.839   7.505  0.5896 -1.1130  0.6518
  844WAT    EPW 4084   5.474   0.768   7.474 -0.2061 -0.1103 -0.2721
  845WAT      O 4085   0.845   1.678   2.221 -0.3627  0.1875  0.4534
  845WAT     H1 4086   0.885   1.684   2.299 -0.4351  0.1363  0.4948
  845WAT     H2 4087   0.908   1.699   2.164 -0.4917  0.8845  0.5651
  845WAT    EPW 4088   0.860   1.682   2.224 -0.1700  0.2633  0.3597
  846WAT      O 4089   4.708   3.200   0.973  0.2328  0.3133  0.2929
  846WAT     H1 4090   4.734   3.234   0.897  0.8075 -0.1648  0.2689
  846WAT     H2 4091   4.638   3.153   0.951  0.6922 -0.2275 -0.0276
  846WAT    EPW 4092   4.702   3.198   0.958  0.3332 -0.1901 -0.4036
  847WAT      O 4093   2.311   6.965   1.474 -0.0850  0.1931  0.3565
  847WAT     H1 4094   2.335   6.985   1.555 -0.6351 -0.1878  0.6175
  847WAT     H2 4095   2.307   7.043   1.434 -0.6963  0.4729  0.9479
  847WAT    EPW 4096   2.314   6.980   1.480  0.1202 -0.2747 -0.0653
  848WAT      O 4097   5.521   6.230   1.875 -0.1001 -0.0063 -0.0369
  848WAT     H1 4098   5.544   6.186   1.947 -1.0079 -2.5467 -1.2009
  848WAT     H2 4099   5.590   6.221   1.823 -1.0031 -1.8399 -1.0033
  848WAT    EPW 4100   5.535   6.222   1.878  0.4065 -0.2702  0.2774
  849WAT      O 4101   0.682   3.603   1.751  0.1678 -0.1782 -0.0310
  849WAT     H1 4102   0.708   3.576   1.830  0.6517 -0.7800 -0.3845
  849WAT     H2 4103   0.662   3.529   1.709  0.3157  0.0997 -0.6068
  849WAT    EPW 4104   0.683   3.588   1.756 -0.0493  0.4958  0.0056
  850WAT      O 4105   0.208   4.297   6.638 -0.1608 -0.6536  0.0443
  850WAT     H1 4106   0.295   4.295   6.638 -0.1325 -3.2748  0.1216
  850WAT     H2 4107   0.188   4.288   6.723 -0.5983  1.9893  0.2984
  850WAT    EPW 4108   0.218   4.295   6.651 -0.3979  0.3120  0.3957
  851WAT      O 4109   5.525   5.268   4.712  0.8815 -0.3909 -0.7232
  851WAT     H1 4110   5.479   5.268   4.638 -0.5288 -1.2463  0.0990
  851WAT     H2 4111   5.607   5.252   4.685  0.5167 -0.0562 -2.1351
  851WAT    EPW 4112   5.530   5.266   4.697 -0.1491  0.1000 -0.5128
  852WAT      O 4113   5.220   5.223   2.049  0.3997  0.0738 -0.3162
  852WAT     H1 4114   5.200   5.138   2.049 -0.2418  0.1847  1.3166
  852WAT     H2 4115   5.160   5.259   1.996  0.7634 -0.4848 -1.1261
  852WAT    EPW 4116   5.208   5.216   2.041  0.3477 -0.2649 -0.1299
  853WAT      O 4117   3.617   4.785   2.719 -0.1888 -0.3980  0.7737
  853WAT     H1 4118   3.579   4.746   2.788  0.7174  0.9715  2.1230
  853WAT     H2 4119   3.675   4.726   2.692 -1.4726 -1.5051  0.2758
  853WAT    EPW 4120   3.620   4.770   2.725 -0.1035 -0.1411 -0.0814
  854WAT      O 4121   6.217   3.071   0.949 -0.0527  0.8009 -0.0560
  854WAT     H1 4122   6.229   3.094   1.033 -1.5879 -0.6545  0.6095
  854WAT     H2 4123   6.133   3.051   0.945  0.3838 -0.9803 -1.4775
  854WAT    EPW 4124   6.206   3.072   0.961  0.7187 -0.5181  0.4938
  855WAT      O 4125   5.905   2.546   3.966  0.6490  0.2040  0.5726
  855WAT     H1 4126   5.829   2.515   3.935  0.9563  0.3905 -0.3994
  855WAT     H2 4127   5.940   2.477   4.006  1.0747 -0.6069 -1.1005
  855WAT    EPW 4128   5.899   2.531   3.967  0.2669  0.3430 -0.3054
  856WAT      O 4129   3.162   7.499   7.419  0.1028 -0.8668  0.4418
  856WAT     H1 4130   3.148   7.544   7.492 -1.7682 -0.7190  0.0334
  856WAT     H2 4131   3.118   7.425   7.431  0.7320 -1.3339 -0.0733
  856WAT    EPW 4132   3.153   7.495   7.431 -0.3751  0.1848  0.2420
  857WAT      O 4133   0.440   1.392   3.695 -0.0527  0.2058  0.6092
  857WAT     H1 4134   0.430   1.414   3.611  0.4704  2.6061  1.0993
  857WAT     H2 4135   0.508   1.440   3.721 -0.5589 -0.0394  2.5616
  857WAT    EPW 4136   0.448   1.403   3.686  0.4970 -0.0800 -0.1953
  858WAT      O 4137   1.732   5.124   6.687  0.5358 -0.2657 -0.9244
  858WAT     H1 4138   1.756   5.177   6.622  0.7111  0.1464 -0.5301
  858WAT     H2 4139   1.647   5.112   6.673  0.9235 -1.7508 -2.3385
  858WAT    EPW 4140   1.723   5.130   6.676 -0.4575  0.0845 -0.0149
  859WAT      O 4141   6.768   1.389   0.158  0.2450  0.2010  0.3820
  859WAT     H1 4142   6.847   1.375   0.193  0.9777 -1.5437 -1.7523
  859WAT     H2 4143   6.782   1.456   0.104  0.2157  0.0398  0.1742
  859WAT    EPW 4144   6.782   1.397   0.155  0.2086 -0.0621 -0.0031
  860WAT      O 4145   0.100   3.875   3.823  0.1696  0.3226 -0.0473
  860WAT     H1 4146   0.065   3.833   3.891 -1.8152  2.9853  0.7232
  860WAT     H2 4147   0.170   3.914   3.856 -0.9550  1.8533  0.6465
  860WAT    EPW 4148   0.105   3.874   3.838  0.3727  0.5014 -0.0683
  861WAT      O 4149   1.678   6.658   6.900  0.0019  0.2066 -0.4878
  861WAT     H1 4150   1.687   6.630   6.817  2.5862 -0.3426 -0.1161
  861WAT     H2 4151   1.670   6.584   6.945 -1.5908  0.5132 -0.1986
  861WAT    EPW 4152   1.678   6.643   6.894 -0.2535 -0.4023  0.6334
  862WAT      O 4153   1.593   0.825   1.354 -0.2614 -0.3270 -0.1851
  862WAT     H1 4154   1.550   0.847   1.281 -0.9542 -0.5582  0.1488
  862WAT     H2 4155   1.650   0.765   1.325 -1.5097 -1.5081 -0.3262
  862WAT    EPW 4156   1.595   0.819   1.339  0.0174 -0.4432  0.4513
  863WAT      O 4157   2.619   1.969   6.960 -0.5215 -0.2426 -0.4097
  863WAT     H1 4158   2.678   1.974   6.896  1.1753 -2.9014  0.7912
  863WAT     H2 4159   2.566   1.905   6.933 -0.0397 -1.0878  0.5687
  863WAT    EPW 4160   2.620   1.960   6.947 -0.0338 -0.1782 -0.1203
  864WAT      O 4161   5.421   5.265   3.402  0.3022 -0.0981  0.3861
  864WAT     H1 4162   5.487   5.212   3.421  1.3744  0.0659 -2.4565
  864WAT     H2 4163   5.351   5.220   3.427  1.3731 -0.7856  2.3770
  864WAT    EPW 4164   5.420   5.250   3.409  0.1656  0.1254  0.2116
  865WAT      O 4165   6.100   6.826   6.553  0.0053  0.1882  0.1266
  865WAT     H1 4166   6.056   6.897   6.578 -0.0942  0.2461 -0.2092
  865WAT     H2 4167   6.183   6.855   6.549 -0.0505  0.3197 -0.1249
  865WAT    EPW 4168   6.106   6.841   6.556 -0.3113  0.6964 -0.8223
  866WAT      O 4169   4.265   4.512   0.510 -0.0289 -0.5042 -0.1274
  866WAT     H1 4170   4.223   4.548   0.577 -0.6835 -2.1547  0.4065
  866WAT     H2 4171   4.201   4.496   0.452  0.4283  0.2667 -0.8659
  866WAT    EPW 4172   4.249   4.515   0.511  0.7869 -0.1429 -0.0396
  867WAT      O 4173   6.530   2.530   1.155 -0.1636 -0.2004 -0.8309
  867WAT     H1 4174   6.490   2.466   1.197  0.3143 -0.9433 -1.4867
  867WAT     H2 4175   6.476   2.549   1.089 -1.4278  1.6866  0.6414
  867WAT    EPW 4176   6.516   2.524   1.151 -0.1741  0.0392  0.3198
  868WAT      O 4177   3.652   2.603   4.414 -0.3004  0.1088 -0.4429
  868WAT     H1 4178   3.578   2.590   4.371 -1.2930 -0.4334  1.3250
  868WAT     H2 4179   3.626   2.639   4.489  1.2543  0.2404  0.0700
  868WAT    EPW 4180   3.637   2.606   4.419 -0.1187 -0.7296 -0.0280
  869WAT      O 4181   7.193   6.356   1.884  0.3475  0.5915 -0.6197
  869WAT     H1 4182   7.255   6.380   1.940 -0.8260  1.7680  0.2324
  869WAT     H2 4183   7.180   6.272   1.902 -0.0682  0.9608  0.9908
  869WAT    EPW 4184   7.200   6.347   1.895 -0.0923  0.2437 -0.1645
  870WAT      O 4185   4.192   6.901   1.092  0.0347 -0.2013  0.3218
  870WAT     H1 4186   4.247   6.848   1.135 -0.1849 -0.3398  0.4386
  870WAT     H2 4187   4.201   6.877   1.009  1.0739  0.6260  0.1770
  870WAT    EPW 4188   4.201   6.889   1.086  0.3609 -0.9083 -0.2361
  871WAT      O 4189   6.502   0.509   6.274  0.0755  0.4745  0.1499
  871WAT     H1 4190   6.447   0.465   6.327 -0.4071  0.1139 -0.6260
  871WAT     H2 4191   6.529   0.448   6.218  1.7776  0.5061  0.8807
  871WAT    EPW 4192   6.498   0.493   6.273 -0.1650  0.0089  0.1861
  872WAT      O 4193   1.513   0.256   1.753  0.2487  0.3295 -0.1613
  872WAT     H1 4194   1.460   0.288   1.814  1.9524  0.1312  1.5357
  872WAT     H2 4195   1.556   0.326   1.725  3.4261 -0.0248  3.0046
  872WAT    EPW 4196   1.511   0.271   1.758 -0.7413 -0.1598  0.0694
  873WAT      O 4197   1.039   2.757   2.509 -0.0037  0.1073 -0.7614
  873WAT     H1 4198   0.958   2.777   2.485  0.6921  2.6160 -1.3733
  873WAT     H2 4199   1.052   2.805   2.581 -0.5354 -3.8982  2.3903
  873WAT    EPW 4200   1.029   2.767   2.516  0.1196 -0.0575  1.0265
  874WAT      O 4201   7.460   6.037   4.889  0.2767 -0.1585  0.5845
  874WAT     H1 4202   7.450   6.050   4.974  0.6095 -2.2228  0.9778
  874WAT     H2 4203   7.410   5.968   4.872  2.0430 -1.2930 -0.3658
  874WAT    EPW 4204   7.451   6.029   4.899  0.0491 -0.3052 -1.4431
  875WAT      O 4205   6.224   6.730   7.246 -0.2239 -0.1347 -0.2615
  875WAT     H1 4206   6.199   6.718   7.163 -2.9295  1.1946  0.2699
  875WAT     H2 4207   6.186   6.664   7.288 -0.8752  0.5543  0.2421
  875WAT    EPW 4208   6.215   6.718   7.240 -0.1248  0.2420  0.4777
  876WAT      O 4209   0.953   7.272   5.301  1.0400 -0.1657  0.0127
  876WAT     H1 4210   0.905   7.280   5.228 -1.5781  0.0873  1.6094
  876WAT     H2 4211   0.964   7.355   5.327  1.3058 -0.2884  0.2911
  876WAT    EPW 4212   0.947   7.286   5.294 -0.0093  0.0364  0.2205
  877WAT      O 4213   7.065   4.247   3.597 -0.1539  0.4253  0.3081
  877WAT     H1 4214   7.087   4.291   3.670 -1.0381  1.4365 -0.0097
  877WAT     H2 4215   7.140   4.244   3.552 -0.0054  1.3818  0.4640
  877WAT    EPW 4216   7.079   4.253   3.601 -0.0980  0.5360 -0.0221
  878WAT      O 4217   1.404   3.241   0.892  0.1638 -0.0810 -0.0838
  878WAT     H1 4218   1.457   3.268   0.955  1.0703  0.2886 -0.9774
  878WAT     H2 4219   1.339   3.201   0.935  1.0282 -0.3160  1.0408
  878WAT    EPW 4220   1.402   3.239   0.908 -0.0574  0.6706 -0.1489
  879WAT      O 4221   5.839   4.542   1.530  0.9294  0.5039  0.2617
  879WAT     H1 4222   5.851   4.508   1.609  0.4543 -2.7060 -0.9103
  879WAT     H2 4223   5.917   4.538   1.493  0.8561  0.6547  0.0879
  879WAT    EPW 4224   5.852   4.537   1.536 -0.2031  0.4124  0.2895
  880WAT      O 4225   6.802   3.951   0.858  0.1464 -0.3196 -0.2398
  880WAT     H1 4226   6.842   3.879   0.888 -0.4467 -0.0071  1.4327
  880WAT     H2 4227   6.867   3.998   0.823  0.5292 -1.6720 -1.4314
  880WAT    EPW 4228   6.818   3.947   0.857 -0.2508  0.8620  0.5650
  881WAT      O 4229   5.830   2.612   5.583  0.2524  0.2007 -0.1686
  881WAT     H1 4230   5.758   2.566   5.595  0.0034  0.4899 -0.5495
  881WAT     H2 4231   5.894   2.552   5.583 -0.1389 -0.2538 -1.5132
  881WAT    EPW 4232   5.829   2.597   5.585 -0.1615 -0.4581 -0.1481
  882WAT      O 4233   0.783   2.289   0.041 -0.7209 -0.1257  0.2579
  882WAT     H1 4234   0.763   2.320   0.120  1.4450 -0.0661  0.8287
  882WAT     H2 4235   0.736   2.340  -0.013 -1.5455  0.4099  1.4331
  882WAT    EPW 4236   0.773   2.301   0.045 -0.3383 -0.0621 -0.6637
  883WAT      O 4237   6.237   5.847   0.351  0.2918  0.2601 -0.0780
  883WAT     H1 4238   6.233   5.761   0.369  1.7214  0.2954  0.4728
  883WAT     H2 4239   6.153   5.869   0.340 -0.0515 -1.3974 -1.1656
  883WAT    EPW 4240   6.224   5.837   0.352  0.0634  0.0856 -0.1521
  884WAT      O 4241   6.390   6.941   1.552 -1.2311  0.4225  0.1875
  884WAT     H1 4242   6.322   6.957   1.604 -1.9557  1.7681 -1.0870
  884WAT     H2 4243   6.422   7.021   1.536 -0.3489 -0.0623 -0.5448
  884WAT    EPW 4244   6.385   6.955   1.558 -0.1716  0.2413  0.1351
  885WAT      O 4245   4.413   4.343   2.609 -0.2807  0.1129 -0.0229
  885WAT     H1 4246   4.405   4.421   2.648 -0.2515  0.1845 -0.1590
  885WAT     H2 4247   4.387   4.287   2.670 -1.0184  0.2767 -0.1760
  885WAT    EPW 4248   4.408   4.346   2.624 -0.1647  0.2039  0.1291
  886WAT      O 4249   4.374   7.480   4.792 -0.5232 -0.0838  0.0655
  886WAT     H1 4250   4.408   7.433   4.856 -0.3600 -0.3922 -0.2470
  886WAT     H2 4251   4.294   7.501   4.822 -0.2027  0.3310  0.6396
  886WAT    EPW 4252   4.367   7.476   4.806  0.2709 -0.2722 -0.0491
  887WAT      O 4253   3.317   0.169   1.524  0.0322 -0.2052 -0.0266
  887WAT     H1 4254   3.271   0.169   1.450  0.0138 -0.5273 -0.0181
  887WAT     H2 4255   3.375   0.105   1.512 -0.6067 -0.9336  0.6234
  887WAT    EPW 4256   3.319   0.159   1.512  0.4127 -0.5968 -0.3226
  888WAT      O 4257   3.513   6.700   1.960  0.3986 -0.1097 -0.3375
  888WAT     H1 4258   3.449   6.754   1.935 -0.0156 -0.0781  0.7611
  888WAT     H2 4259   3.566   6.751   2.007  0.1372 -0.6003  0.4963
  888WAT    EPW 4260   3.512   6.716   1.963  0.2646 -0.5278  0.3547
  889WAT      O 4261   5.178   6.430   0.798  0.3195 -0.0548  0.5930
  889WAT     H1 4262   5.170   6.345   0.816 -0.7590 -0.6461 -2.2188
  889WAT     H2 4263   5.099   6.453   0.768  1.3785  1.1180 -1.5585
  889WAT    EPW 4264   5.165   6.421   0.796 -0.0123 -0.4141  0.4848
  890WAT      O 4265   0.895   0.333   3.941  0.2219 -0.2123 -0.2935
  890WAT     H1 4266   0.842   0.398   3.921  0.9140  0.4946  0.0999
  890WAT     H2 4267   0.975   0.367   3.932  0.5915 -0.8505  0.3858
  890WAT    EPW 4268   0.899   0.348   3.937 -0.3102 -0.2002  0.0453
  891WAT      O 4269   3.802   2.190   2.554  0.1751  0.7257 -0.2745
  891WAT     H1 4270   3.885   2.207   2.575  0.3850 -1.4707  1.0114
  891WAT     H2 4271   3.760   2.265   2.571  1.5850  1.2657  1.0030
  891WAT    EPW 4272   3.808   2.204   2.560 -0.2984 -0.0553  0.3584
  892WAT      O 4273   2.890   7.322   6.418 -0.0087  0.1961  0.9027
  892WAT     H1 4274   2.913   7.359   6.342  1.7243  2.1229  2.2439
  892WAT     H2 4275   2.944   7.255   6.426  0.6405  0.7133  0.9506
  892WAT    EPW 4276   2.901   7.318   6.408 -0.0286  0.3074 -0.0261
  893WAT      O 4277   6.440   0.659   1.599  0.2267 -0.1332 -0.2438
  893WAT     H1 4278   6.463   0.640   1.517  0.6594  1.7370 -0.6012
  893WAT     H2 4279   6.470   0.591   1.645  0.9429 -0.6945 -1.4841
  893WAT    EPW 4280   6.448   0.646   1.593  0.1766 -0.1815 -0.0760
  894WAT      O 4281   1.775   0.607   1.846  0.0904  0.3538 -0.0961
  894WAT     H1 4282   1.816   0.679   1.819  0.1633  0.7264  0.9598
  894WAT     H2 4283   1.807   0.594   1.926 -2.1705  0.9566  1.0081
  894WAT    EPW 4284   1.786   0.616   1.854 -0.3255 -0.1299 -0.4617
  895WAT      O 4285   7.303   4.436   0.898 -0.4732 -0.3543  0.2120
  895WAT     H1 4286   7.287   4.445   0.813  0.8449  2.1220  0.1416
  895WAT     H2 4287   7.235   4.476   0.936 -0.5381 -0.5708  0.3325
  895WAT    EPW 4288   7.290   4.443   0.891  0.3406  0.4667 -0.3260
  896WAT      O 4289   6.294   7.465   4.175  0.0272 -0.3507 -0.1370
  896WAT     H1 4290   6.352   7.416   4.133  0.6686 -0.1759  0.5341
  896WAT     H2 4291   6.341   7.505   4.237 -0.8883 -0.6078  0.7540
  896WAT    EPW 4292   6.309   7.464   4.178 -0.1363 -0.1905  0.0343
  897WAT      O 4293   7.188   0.423   5.139  0.3489 -0.0220  0.1001
  897WAT     H1 4294   7.246   0.360   5.124  0.4187  0.1749 -0.5160
  897WAT     H2 4295   7.143   0.394   5.207  1.6157  0.1323  1.0494
  897WAT    EPW 4296   7.190   0.410   5.147  0.3584 -0.2803  0.7170
  898WAT      O 4297   6.228   7.376   7.494 -0.5848  0.3000 -0.6259
  898WAT     H1 4298   6.147   7.402   7.474 -1.1749 -1.6802 -1.0187
  898WAT     H2 4299   6.275   7.401   7.426 -0.8965  1.1637 -0.5494
  898WAT    EPW 4300   6.223   7.384   7.481  0.4713 -0.0289 -0.3125
  899WAT      O 4301   4.072   2.029   1.710  0.6248  0.1298  0.0490
  899WAT     H1 4302   4.035   1.991   1.641 -1.2582 -0.7903  1.4537
  899WAT     H2 4303   4.145   1.982   1.722 -0.5572 -1.7674  0.4262
  899WAT    EPW 4304   4.077   2.016   1.702 -0.0698  0.1493 -0.0838
  900WAT      O 4305   4.133   0.577   0.337 -0.2919 -0.1152  0.1820
  900WAT     H1 4306   4.180   0.595   0.267  1.7296  0.7667  1.6682
  900WAT     H2 4307   4.070   0.638   0.337  0.7035  0.9440  0.0021
  900WAT    EPW 4308   4.131   0.588   0.327  0.1608 -1.1214 -0.1370
  901WAT      O 4309   3.774   4.919   3.155 -0.0197  0.2288  0.2136
  901WAT     H1 4310   3.820   4.919   3.230  1.3938 -1.1918 -0.5986
  901WAT     H2 4311   3.826   4.960   3.099  0.6866 -2.0267 -0.9015
  901WAT    EPW 4312   3.788   4.925   3.158  0.4875  0.3964 -0.0370
  902WAT      O 4313   2.246   1.097   2.500 -0.3337 -0.3461  0.1083
  902WAT     H1 4314   2.198   1.122   2.431 -1.7729 -4.5507 -0.7153
  902WAT     H2 4315   2.198   1.120   2.568 -1.2746 -0.3335 -0.5435
  902WAT    EPW 4316   2.232   1.104   2.500 -0.0374 -0.0713 -0.0716
  903WAT      O 4317   1.039   2.481   0.449  0.2285  0.3116 -0.2973
  903WAT     H1 4318   1.078   2.405   0.432 -0.4781 -0.0924 -0.1414
  903WAT     H2 4319   0.974   2.460   0.504  0.4067  1.1170  0.2435
  903WAT    EPW 4320   1.035   2.467   0.454  0.3489 -0.4310 -0.4220
  904WAT      O 4321   3.679   6.778   3.926  0.0420  0.4563 -0.0151
  904WAT     H1 4322   3.729   6.744   3.864  0.6975  1.0101  0.1952
  904WAT     H2 4323   3.609   6.807   3.883 -0.9787 -1.9347 -0.0879
  904WAT    EPW 4324   3.676   6.777   3.911  0.5495 -0.2520  0.2331
  905WAT      O 4325   5.951   2.829   5.775 -0.5950  0.4677  0.0543
  905WAT     H1 4326   5.936   2.766   5.717 -0.1110 -0.2249  0.6634
  905WAT     H2 4327   5.876   2.833   5.821 -0.4770  0.0258  0.2944
  905WAT    EPW 4328   5.938   2.821   5.773  0.0437  0.0199  0.0837
  906WAT      O 4329   5.303   3.020   5.201 -0.1080  0.2425 -0.0123
  906WAT     H1 4330   5.226   3.000   5.237  0.1998 -1.5806 -0.2609
  906WAT     H2 4331   5.335   2.943   5.177  0.5954  1.1906 -2.4095
  906WAT    EPW 4332   5.297   3.006   5.203 -0.0732  0.2803  0.0164
  907WAT      O 4333   6.196   4.108   6.725 -0.1584  0.4622 -0.0508
  907WAT     H1 4334   6.110   4.104   6.739 -0.0421  1.0943  0.9909
  907WAT     H2 4335   6.214   4.193   6.735  0.8519  0.1049  1.6366
  907WAT    EPW 4336   6.186   4.120   6.728 -0.2663  0.4049  0.9829
  908WAT      O 4337   6.668   2.837   3.795  0.3339  0.0325  0.1102
  908WAT     H1 4338   6.670   2.880   3.719  0.3412 -1.4012 -0.7319
  908WAT     H2 4339   6.736   2.782   3.789 -0.5677 -1.1521  0.5093
  908WAT    EPW 4340   6.678   2.835   3.783  0.0007 -0.5113 -0.1650
  909WAT      O 4341   0.473   0.122   7.504 -0.5911  0.4683  0.5267
  909WAT     H1 4342   0.403   0.138   7.454 -1.0150  1.5027  1.4016
  909WAT     H2 4343   0.530   0.182   7.479 -1.2564  1.8230  2.0789
  909WAT    EPW 4344   0.471   0.133   7.493  0.2136 -0.1420 -0.0523
  910WAT      O 4345   4.255   3.801   5.598  0.4031  0.5475  0.4121
  910WAT     H1 4346   4.264   3.863   5.538  1.3196 -1.1203 -1.2938
  910WAT     H2 4347   4.329   3.804   5.643 -0.3398  1.8876  1.6168
  910WAT    EPW 4348   4.267   3.810   5.596 -0.4185  0.0915 -0.2432
  911WAT      O 4349   4.534   2.507   4.833 -0.0098 -0.2811  0.1504
  911WAT     H1 4350   4.560   2.494   4.750  0.6027  2.5164 -0.1903
  911WAT     H2 4351   4.447   2.507   4.828 -0.0023 -1.1539 -0.2616
  911WAT    EPW 4352   4.525   2.505   4.820 -0.0261 -0.0638 -0.0500
  912WAT      O 4353   7.334   0.597   4.166 -0.1504  0.0427 -0.0412
  912WAT     H1 4354   7.288   0.658   4.207 -0.8132 -0.6612  0.2740
  912WAT     H2 4355   7.393   0.572   4.226  0.7468  1.0342 -0.4876
  912WAT    EPW 4356   7.336   0.602   4.181  0.1920  0.5096 -0.1749
  913WAT      O 4357   1.369   1.923   3.306  0.2809 -0.2140  0.0028
  913WAT     H1 4358   1.424   1.990   3.316 -0.8099  0.6405  0.4990
  913WAT     H2 4359   1.314   1.950   3.244 -1.2774  0.1593  1.4597
  913WAT    EPW 4360   1.369   1.936   3.298 -0.4965 -0.5145  0.1047
  914WAT      O 4361   0.053   3.675   4.064  0.2465 -0.0242 -0.3558
  914WAT     H1 4362   0.097   3.662   4.138  2.5751  1.7290 -1.2875
  914WAT     H2 4363   0.054   3.596   4.026 -0.0911 -0.7052  0.9913
  914WAT    EPW 4364   0.060   3.662   4.069  0.1332 -0.1026 -0.4506
  915WAT      O 4365   4.273   6.354   5.762  0.2370  0.1165  0.4816
  915WAT     H1 4366   4.311   6.430   5.781 -1.8516  1.1686  0.7810
  915WAT     H2 4367   4.255   6.320   5.840 -1.0968  0.5684  0.3991
  915WAT    EPW 4368   4.276   6.361   5.776  0.2152  0.7015 -0.1074
  916WAT      O 4369   1.211   6.856   1.203 -0.2765 -0.1956  0.2592
  916WAT     H1 4370   1.163   6.786   1.222  1.1885 -1.7148 -1.2093
  916WAT     H2 4371   1.152   6.918   1.186 -1.6369 -1.2797  0.8638
  916WAT    EPW 4372   1.195   6.855   1.203 -0.0006 -0.1299  0.6499
  917WAT      O 4373   6.510   7.205   1.513 -0.1901 -0.2555 -0.7011
  917WAT     H1 4374   6.571   7.246   1.559 -1.5776  0.5998  0.4806
  917WAT     H2 4375   6.540   7.207   1.431  1.3070  0.1821 -0.1642
  917WAT    EPW 4376   6.523   7.212   1.508  0.0312 -0.2012 -0.4397
  918WAT      O 4377   5.136   3.180   3.534 -0.3992 -0.2757  0.2505
  918WAT     H1 4378   5.082   3.248   3.527 -1.2789 -1.0368 -0.5768
  918WAT     H2 4379   5.084   3.111   3.522  0.9998 -1.0010 -2.2650
  918WAT    EPW 4380   5.121   3.180   3.531  0.0763 -0.3075 -0.1207
  919WAT      O 4381   1.073   0.522   0.793  0.5588 -0.1109 -0.1355
  919WAT     H1 4382   1.081   0.549   0.876 -2.0725 -0.5562  0.3325
  919WAT     H2 4383   1.050   0.594   0.751 -0.3116 -0.3321 -0.0478
  919WAT    EPW 4384   1.071   0.537   0.799 -0.1499  0.4558 -0.7350
  920WAT      O 4385   3.364   6.341   5.487 -0.4358  0.0832 -0.1817
  920WAT     H1 4386   3.318   6.323   5.416 -1.3882 -0.3039  0.5073
  920WAT     H2 4387   3.315   6.309   5.552  1.1780 -1.1065  0.5396
  920WAT    EPW 4388   3.350   6.333   5.486  0.4096  0.2316  0.4822
  921WAT      O 4389   6.043   3.914   5.039 -0.4893  0.8642  0.3046
  921WAT     H1 4390   5.992   3.907   5.109  0.2820 -0.2212  0.7897
  921WAT     H2 4391   6.084   3.837   5.036 -1.1859  0.5047 -1.8892
  921WAT    EPW 4392   6.042   3.901   5.049  0.0178  0.5412 -0.1792
  922WAT      O 4393   5.011   2.949   0.662 -0.0963 -0.3422 -0.7156
  922WAT     H1 4394   4.972   2.964   0.739 -0.1444 -0.9569 -0.6206
  922WAT     H2 4395   5.064   3.018   0.653 -0.9348  0.3293 -0.6790
  922WAT    EPW 4396   5.013   2.962   0.672  0.1048 -0.2538  0.3366
  923WAT      O 4397   0.518   3.806   0.132 -0.1786 -0.3313  0.1161
  923WAT     H1 4398   0.522   3.742   0.191  0.0498  0.0662  0.5337
  923WAT     H2 4399   0.599   3.840   0.133 -0.4930  0.4157  0.4042
  923WAT    EPW 4400   0.531   3.801   0.141 -0.3969  0.2139 -0.9330
  924WAT      O 4401   5.159   5.587   4.569 -0.2437 -0.3472 -0.5662
  924WAT     H1 4402   5.228   5.628   4.535 -0.0061 -1.2098 -1.1519
  924WAT     H2 4403   5.162   5.508   4.532 -1.2057 -0.5927 -0.1408
  924WAT    EPW 4404   5.170   5.581   4.559  0.3433  0.1139  0.1596
  925WAT      O 4405   7.374   3.299   4.295  0.0341 -0.0245 -0.0777
  925WAT     H1 4406   7.431   3.333   4.352 -0.6627 -0.6290  1.0133
  925WAT     H2 4407   7.416   3.230   4.263 -0.0913 -0.5014  0.7662
  925WAT    EPW 4408   7.388   3.294   4.299  0.6403  0.8091  0.2463
  926WAT      O 4409   3.120   6.074   0.465 -0.4925  0.2369 -0.3379
  926WAT     H1 4410   3.070   6.020   0.513 -1.2704  0.8443 -0.4466
  926WAT     H2 4411   3.179   6.104   0.521 -1.6204  1.2291  0.3516
  926WAT    EPW 4412   3.121   6.070   0.480  0.6647  0.1274  0.3940
  927WAT      O 4413   4.598   4.100   4.486 -0.0450 -0.3069  0.1917
  927WAT     H1 4414   4.631   4.038   4.539 -0.1895  0.1798  0.8640
  927WAT     H2 4415   4.532   4.133   4.533  1.1333  1.5834  0.6113
  927WAT    EPW 4416   4.593   4.095   4.501 -0.7167  0.4640  0.1074
  928WAT      O 4417   1.831   6.833   5.258  0.1827  0.0008 -0.1319
  928WAT     H1 4418   1.841   6.752   5.288  2.3813 -0.1396 -1.0645
  928WAT     H2 4419   1.848   6.825   5.173  0.2498  1.4100 -0.2750
  928WAT    EPW 4420   1.835   6.820   5.250  0.5086  0.5393 -0.0344
  929WAT      O 4421   1.026   5.073   2.708 -0.0653  0.3159 -0.3186
  929WAT     H1 4422   0.966   5.121   2.749  0.6904  0.7479  0.2826
  929WAT     H2 4423   1.091   5.129   2.692  0.8444 -0.4980  0.4218
  929WAT    EPW 4424   1.027   5.088   2.711  0.3586  0.3036  0.0508
  930WAT      O 4425   7.420   3.006   0.622  0.4300 -0.3097  0.0426
  930WAT     H1 4426   7.450   2.926   0.640 -1.8484 -1.4641 -0.8833
  930WAT     H2 4427   7.377   3.028   0.695  1.4053  0.2989  0.4561
  930WAT    EPW 4428   7.418   2.997   0.636  0.0913  0.4014  0.0107
  931WAT      O 4429   2.022   0.054   2.916 -0.0996 -0.2375  0.7270
  931WAT     H1 4430   2.005  -0.013   2.862  0.4847 -1.3720  1.8912
  931WAT     H2 4431   2.088   0.095   2.877  0.2508 -0.9796  0.5111
  931WAT    EPW 4432   2.029   0.050   2.902  0.7201  0.1575 -0.0956
  932WAT      O 4433   0.189   5.818   1.036 -0.4765 -0.1772 -0.3056
  932WAT     H1 4434   0.268   5.810   0.999  0.7288 -1.1317  2.2769
  932WAT     H2 4435   0.167   5.736   1.056 -0.6910  0.3284  1.7378
  932WAT    EPW 4436   0.197   5.805   1.033  0.3012 -0.2620  0.1572
  933WAT      O 4437   0.371   6.762   0.128 -0.3612 -0.0041 -0.3479
  933WAT     H1 4438   0.374   6.845   0.101 -0.7755 -0.0107 -0.4176
  933WAT     H2 4439   0.295   6.733   0.097  0.4551 -0.8727 -1.6701
  933WAT    EPW 4440   0.360   6.770   0.119 -0.3018  0.2658  0.2381
  934WAT      O 4441   0.943   7.357   4.347 -0.4737  0.0586  0.3268
  934WAT     H1 4442   0.978   7.437   4.344 -1.7923  0.6387 -1.2054
  934WAT     H2 4443   0.962   7.323   4.269 -0.5824 -0.8392  0.6756
  934WAT    EPW 4444   0.951   7.364   4.335 -0.0943  0.5591 -0.2096
  935WAT      O 4445   1.843   5.672   5.532  0.3005 -0.2389  0.5106
  935WAT     H1 4446   1.855   5.738   5.588 -0.3021  0.4218 -0.1123
  935WAT     H2 4447   1.771   5.696   5.488  1.2458 -0.3140 -1.1491
  935WAT    EPW 4448   1.834   5.685   5.534  0.0706 -0.8580  0.0444
  936WAT      O 4449   4.420   4.584   2.137 -0.6907 -0.3468  0.2042
  936WAT     H1 4450   4.498   4.612   2.166 -0.4127 -0.3837 -0.4708
  936WAT     H2 4451   4.404   4.513   2.185 -0.3746 -0.2512  0.4552
  936WAT    EPW 4452   4.429   4.578   2.148  0.6484  0.1326 -0.5908
  937WAT      O 4453   6.084   2.922   2.287  0.4171  0.6610  0.2724
  937WAT     H1 4454   6.010   2.963   2.264  2.2157  4.5958  0.6321
  937WAT     H2 4455   6.104   2.959   2.364  1.9741 -1.5301  1.0343
  937WAT    EPW 4456   6.076   2.933   2.295 -0.2686 -0.4047 -0.0747
  938WAT      O 4457   4.091   1.024   3.511  0.3757  0.2814  0.2337
  938WAT     H1 4458   4.113   1.105   3.489 -0.4756  0.2112 -0.9702
  938WAT     H2 4459   4.067   1.031   3.595 -1.2665  1.6157 -0.2955
  938WAT    EPW 4460   4.090   1.037   3.520  0.4966  0.4439  0.5159
  939WAT      O 4461   0.746   5.029   5.036 -0.3361  0.2324 -0.2852
  939WAT     H1 4462   0.817   4.980   5.028  0.7037  1.5159  0.6204
  939WAT     H2 4463   0.775   5.102   5.074 -2.1437  0.7842  0.1594
  939WAT    EPW 4464   0.761   5.033   5.040  0.1216 -0.2293 -0.1456
  940WAT      O 4465   6.407   0.753   2.580 -0.2446  0.0505  0.1357
  940WAT     H1 4466   6.478   0.702   2.584 -0.2206 -0.2760 -2.4894
  940WAT     H2 4467   6.341   0.697   2.581 -0.3161  0.1162 -0.5158
  940WAT    EPW 4468   6.408   0.737   2.581 -0.8315  0.4617  0.4580
  941WAT      O 4469   6.029   1.899   1.216  0.2207 -0.0800 -0.5070
  941WAT     H1 4470   6.043   1.813   1.212  2.0544  0.1582  0.0350
  941WAT     H2 4471   5.964   1.907   1.274  2.0567 -0.9721  1.8223
  941WAT    EPW 4472   6.021   1.888   1.224 -0.2551  0.4381  0.4871
  942WAT      O 4473   0.452   5.113   2.012 -0.0295 -0.4261 -0.0648
  942WAT     H1 4474   0.485   5.132   2.090  0.8064 -0.5952 -0.3610
  942WAT     H2 4475   0.522   5.089   1.966 -0.0868  2.0094 -1.6148
  942WAT    EPW 4476   0.468   5.112   2.017  0.8412  0.2658 -0.7579
  943WAT      O 4477   7.373   4.074   0.882  0.2632 -0.0538  0.3809
  943WAT     H1 4478   7.446   4.090   0.927  1.0854 -0.9603 -0.5614
  943WAT     H2 4479   7.374   4.135   0.820 -0.0750  0.2622  0.6803
  943WAT    EPW 4480   7.384   4.085   0.880 -0.1196 -0.1736  0.2913
  944WAT      O 4481   2.472   3.832   0.995 -0.4240  0.0896 -0.9838
  944WAT     H1 4482   2.491   3.863   1.074 -2.3654 -0.6997 -0.1376
  944WAT     H2 4483   2.550   3.816   0.960  0.5074 -0.1674  1.0403
  944WAT    EPW 4484   2.486   3.834   1.002 -0.3011 -0.1817 -0.0831
  945WAT      O 4485   6.476   4.181   0.460  0.1470  0.0808  0.1231
  945WAT     H1 4486   6.499   4.262   0.483  0.1619  0.4440 -1.0764
  945WAT     H2 4487   6.389   4.185   0.453 -0.1009 -0.6401  2.2764
  945WAT    EPW 4488   6.467   4.194   0.462 -0.2627 -0.4469 -0.0293
  946WAT      O 4489   4.376   0.179   2.698  0.1892  0.6227  0.5052
  946WAT     H1 4490   4.375   0.203   2.614 -0.2019 -0.0823  0.3020
  946WAT     H2 4491   4.393   0.253   2.740 -0.0857  1.0781 -0.1642
  946WAT    EPW 4492   4.379   0.193   2.692 -0.2193 -0.9312 -0.1174
  947WAT      O 4493   6.835   4.028   2.599  0.1362  0.1169 -0.2890
  947WAT     H1 4494   6.815   3.980   2.529 -0.4878  0.8321 -0.6142
  947WAT     H2 4495   6.885   4.092   2.567 -0.4450  0.6489 -0.1428
  947WAT    EPW 4496   6.840   4.031   2.584  0.0095  0.0377 -0.0544
  948WAT      O 4497   1.457   5.762   1.850  0.2110  0.2619  0.2705
  948WAT     H1 4498   1.490   5.842   1.862  0.0265  0.7052 -1.8043
  948WAT     H2 4499   1.497   5.734   1.778 -2.3146 -0.0402 -1.1289
  948WAT    EPW 4500   1.468   5.770   1.841  0.0511 -0.0030  0.0850
  949WAT      O 4501   1.548   3.122   6.848 -0.7744  0.3040 -0.4260
  949WAT     H1 4502   1.467   3.155   6.848 -0.8880  0.0327 -0.9002
  949WAT     H2 4503   1.535   3.037   6.833 -0.5274 -0.0756  1.2162
  949WAT    EPW 4504   1.534   3.114   6.846 -0.2732  0.3326 -0.0416
  950WAT      O 4505   0.976   6.952   6.139  0.6656 -0.3302 -0.2990
  950WAT     H1 4506   0.938   7.007   6.194 -2.0430 -2.1456 -0.1901
  950WAT     H2 4507   1.047   6.926   6.183  1.0245  1.6034  0.3790
  950WAT    EPW 4508   0.981   6.956   6.154  0.0598 -0.1002 -1.0292
  951WAT      O 4509   6.368   0.876   0.103 -0.0975 -0.1412  0.1842
  951WAT     H1 4510   6.363   0.877   0.190 -1.8138  0.5884  0.1293
  951WAT     H2 4511   6.408   0.801   0.085 -0.3475 -0.6440  1.5827
  951WAT    EPW 4512   6.373   0.865   0.113  0.3920 -0.5565  0.2559
  952WAT      O 4513   2.195   5.526   3.912  0.0201  0.2733 -0.0961
  952WAT     H1 4514   2.281   5.540   3.911  0.2096 -0.7878 -0.8681
  952WAT     H2 4515   2.186   5.457   3.964 -0.0370 -1.2854 -2.0568
  952WAT    EPW 4516   2.206   5.518   3.919  0.3315 -0.2162  0.2107
  953WAT      O 4517   5.369   3.489   0.965  0.2518 -0.4495  0.2539
  953WAT     H1 4518   5.351   3.406   0.987 -2.1581  0.0935  0.6510
  953WAT     H2 4519   5.334   3.535   1.030  1.0271  0.9184 -0.2696
  953WAT    EPW 4520   5.361   3.483   0.978 -0.2471  0.2195 -0.2666
  954WAT      O 4521   0.434   4.180   5.075 -0.7140 -0.0481  0.3529
  954WAT     H1 4522   0.519   4.169   5.089 -0.5147 -0.5652 -1.0443
  954WAT     H2 4523   0.405   4.099   5.062 -1.1934  0.2168 -0.2973
  954WAT    EPW 4524   0.442   4.166   5.075  0.0372 -0.8638  0.7132
  955WAT      O 4525   5.766   4.577   4.786  0.2404  0.3911  0.1755
  955WAT     H1 4526   5.819   4.531   4.838 -1.4557 -0.7817  0.9575
  955WAT     H2 4527   5.755   4.525   4.717  1.8844  1.6269 -1.1050
  955WAT    EPW 4528   5.773   4.563   4.784  0.2617 -0.2128 -0.3199
  956WAT      O 4529   2.002   6.010   5.350  0.0446 -0.2929 -0.2459
  956WAT     H1 4530   2.035   6.028   5.272  0.7142 -1.0087 -0.1380
  956WAT     H2 4531   1.936   6.066   5.358  1.1131  1.0594 -0.5427
  956WAT    EPW 4532   1.997   6.021   5.340 -0.0424  0.0352  0.3685
  957WAT      O 4533   1.639   1.522   7.089 -0.1683  0.0505 -0.0556
  957WAT     H1 4534   1.596   1.575   7.035  0.0364  0.1910 -0.0800
  957WAT     H2 4535   1.637   1.445   7.048  0.2697  0.2278 -0.4218
  957WAT    EPW 4536   1.632   1.519   7.075  0.1073  0.1240  0.0160
  958WAT      O 4537   0.189   1.401   3.397  0.3513 -0.4063 -0.1863
  958WAT     H1 4538   0.271   1.425   3.383  0.2405 -0.2915 -0.6336
  958WAT     H2 4539   0.183   1.398   3.484  2.2204 -4.9866  0.0692
  958WAT    EPW 4540   0.200   1.404   3.408 -0.0172 -0.1761  0.3378
  959WAT      O 4541   1.667   6.458   4.225  0.4870  0.3006  0.4087
  959WAT     H1 4542   1.752   6.456   4.208  0.4526 -1.2689  0.2637
  959WAT     H2 4543   1.632   6.412   4.159  0.0472 -3.2503  2.8619
  959WAT    EPW 4544   1.674   6.451   4.213  0.1411 -0.2005 -0.4014
  960WAT      O 4545   2.564   4.350   6.958 -0.4827 -0.6818  0.6739
  960WAT     H1 4546   2.565   4.316   7.038  0.8370 -2.8689 -0.1755
  960WAT     H2 4547   2.538   4.432   6.971 -1.4707 -1.2935  3.1770
  960WAT    EPW 4548   2.561   4.357   6.972 -0.0867  0.4165 -0.1265
  961WAT      O 4549   2.749   0.118   0.808  0.1905  0.2365 -0.1482
  961WAT     H1 4550   2.743   0.127   0.894  2.1265 -1.9793  0.3343
  961WAT     H2 4551   2.716   0.039   0.793  1.2077 -0.0145 -1.2149
  961WAT    EPW 4552   2.743   0.108   0.818  0.1606 -0.3667 -0.2162
  962WAT      O 4553   1.285   1.024   2.368 -0.1536 -0.7045  0.1371
  962WAT     H1 4554   1.221   0.976   2.332  0.2881 -1.8037  0.7478
  962WAT     H2 4555   1.341   1.036   2.303  0.4469 -2.3303  0.2914
  962WAT    EPW 4556   1.284   1.019   2.353 -0.2716 -0.0033 -0.4215
  963WAT      O 4557   5.556   6.327   6.304 -0.0970  0.0708 -0.1434
  963WAT     H1 4558   5.573   6.355   6.385 -2.3226  0.6768  0.1906
  963WAT     H2 4559   5.590   6.247   6.302 -1.1656 -0.4825  1.8702
  963WAT    EPW 4560   5.564   6.319   6.316  0.2646 -0.2595  0.5119
  964WAT      O 4561   5.127   2.054   5.832  0.2322  0.4182  0.0318
  964WAT     H1 4562   5.161   2.048   5.912  1.0557 -0.5833 -0.3683
  964WAT     H2 4563   5.158   1.983   5.791  0.3486  1.2344 -1.3692
  964WAT    EPW 4564   5.136   2.042   5.838  0.4479  0.4215  0.5851
  965WAT      O 4565   4.479   2.429   2.231 -0.3923 -0.9034 -0.3744
  965WAT     H1 4566   4.553   2.452   2.191  0.0279  2.4432  1.8846
  965WAT     H2 4567   4.506   2.377   2.296 -0.2313 -1.0009 -0.5201
  965WAT    EPW 4568   4.494   2.424   2.235 -0.4287 -0.1448  0.0106
  966WAT      O 4569   6.380   6.305   4.161 -0.2365 -0.1617 -0.4112
  966WAT     H1 4570   6.299   6.333   4.148 -0.8463 -1.5350  0.3050
  966WAT     H2 4571   6.395   6.253   4.093 -0.1491 -0.3258 -0.2666
  966WAT    EPW 4572   6.370   6.302   4.149 -0.4294  0.1620  0.7247
  967WAT      O 4573   5.768   2.781   2.658  0.1272  0.3880  0.0473
  967WAT     H1 4574   5.682   2.792   2.668  0.2907  0.1701  2.0331
  967WAT     H2 4575   5.793   2.747   2.734  2.1960  1.8158  0.0757
  967WAT    EPW 4576   5.759   2.777   2.670 -0.4648 -0.3500  0.0847
  968WAT      O 4577   7.289   5.698   5.733  0.2878  0.1084 -0.1087
  968WAT     H1 4578   7.244   5.623   5.736  0.4328  0.0507  1.6750
  968WAT     H2 4579   7.272   5.735   5.810  1.7224  1.0294 -0.1959
  968WAT    EPW 4580   7.280   5.693   5.745 -0.1605 -0.2557  0.5971
  969WAT      O 4581   7.065   2.849   2.395  0.0418 -0.1966 -0.3450
  969WAT     H1 4582   7.116   2.788   2.431  0.6974 -0.7193 -2.0596
  969WAT     H2 4583   7.102   2.924   2.419 -1.2987 -0.3167  2.5756
  969WAT    EPW 4584   7.078   2.851   2.404 -0.1731  0.2964  0.5777
  970WAT      O 4585   1.618   5.376   1.359 -0.0540 -0.0647  0.0284
  970WAT     H1 4586   1.681   5.432   1.381 -0.9832  0.5566  1.2615
  970WAT     H2 4587   1.661   5.307   1.327  1.1878  0.7331 -0.0831
  970WAT    EPW 4588   1.633   5.374   1.358 -0.0517 -0.6250 -0.3349
  971WAT      O 4589   5.344   6.425   0.051  0.2000 -0.1341 -0.3461
  971WAT     H1 4590   5.282   6.385   0.097 -0.5885  0.9929 -0.3991
  971WAT     H2 4591   5.381   6.359   0.006 -0.8960 -0.8416 -0.2573
  971WAT    EPW 4592   5.340   6.409   0.051  0.0837 -0.1529  0.3348
  972WAT      O 4593   0.721   3.591   6.892 -0.2798 -0.3439 -0.2907
  972WAT     H1 4594   0.795   3.615   6.851 -0.3246  1.1658  0.4477
  972WAT     H2 4595   0.669   3.660   6.882 -0.6454 -0.3278  1.4533
  972WAT    EPW 4596   0.724   3.605   6.884 -0.0243 -0.6244  0.0703
  973WAT      O 4597   0.912   6.427   3.163 -0.0419  0.6512  0.2814
  973WAT     H1 4598   0.989   6.436   3.202 -0.0527 -0.2218  0.5350
  973WAT     H2 4599   0.926   6.453   3.081  1.0116 -1.1926 -0.1767
  973WAT    EPW 4600   0.925   6.432   3.157  0.2203  0.6071 -0.9852
  974WAT      O 4601   2.456   4.665   0.764 -0.7424 -0.6233 -0.3666
  974WAT     H1 4602   2.440   4.603   0.706  0.4073 -0.3527 -1.0022
  974WAT     H2 4603   2.444   4.625   0.841  0.1073 -1.6651 -0.7599
  974WAT    EPW 4604   2.452   4.650   0.767 -0.1901  0.3265 -0.0881
  975WAT      O 4605   3.429   5.324   2.229 -0.1975  0.2539 -0.2762
  975WAT     H1 4606   3.496   5.360   2.273 -0.2793 -1.0559  1.0252
  975WAT     H2 4607   3.442   5.349   2.147  0.6181  1.8864  0.3054
  975WAT    EPW 4608   3.441   5.333   2.224 -0.1444 -0.1592  0.5073
  976WAT      O 4609   6.334   6.630   4.654  0.1396  0.3438 -0.4640
  976WAT     H1 4610   6.308   6.567   4.708  0.4553  0.5637 -0.0469
  976WAT     H2 4611   6.386   6.589   4.598 -0.6764  0.0012 -0.9788
  976WAT    EPW 4612   6.338   6.615   4.654  0.4598  0.0482  0.0765
  977WAT      O 4613   0.724   5.615   5.505  0.0930 -0.3842 -0.7259
  977WAT     H1 4614   0.810   5.608   5.511 -0.0232 -0.8696  1.2584
  977WAT     H2 4615   0.699   5.536   5.478  0.2230 -0.5884 -0.2653
  977WAT    EPW 4616   0.733   5.602   5.502 -0.1007  0.8477 -0.0268
  978WAT      O 4617   2.800   2.395   6.907  0.0907  0.1979  0.4742
  978WAT     H1 4618   2.723   2.398   6.948  1.2044  0.8718  2.7033
  978WAT     H2 4619   2.841   2.328   6.946  0.3152 -0.8064 -1.3790
  978WAT    EPW 4620   2.795   2.385   6.919  0.1076  0.1559 -0.2525
  979WAT      O 4621   1.504   2.684   0.795 -0.0788  1.0278 -0.4101
  979WAT     H1 4622   1.460   2.626   0.747  1.1025 -0.1165 -0.1600
  979WAT     H2 4623   1.468   2.760   0.773 -2.3589  0.1335  0.0081
  979WAT    EPW 4624   1.492   2.687   0.784 -0.0794  0.0086  0.3622
  980WAT      O 4625   1.418   3.795   0.131 -0.6265 -0.3755  0.0098
  980WAT     H1 4626   1.430   3.764   0.211 -2.8578 -1.7464 -0.0937
  980WAT     H2 4627   1.485   3.764   0.086 -0.8260 -1.9709  0.7509
  980WAT    EPW 4628   1.429   3.786   0.136  0.1163  0.2501 -0.4507
  981WAT      O 4629   3.651   0.076   6.822 -0.7790 -0.0416 -0.0396
  981WAT     H1 4630   3.628   0.050   6.742  0.6251  0.1735 -0.5399
  981WAT     H2 4631   3.619   0.013   6.873 -1.5068 -0.3004 -0.7835
  981WAT    EPW 4632   3.643   0.063   6.818  0.0366  0.1442 -0.1618
  982WAT      O 4633   5.491   1.000   3.442 -0.0534  0.0017  0.7999
  982WAT     H1 4634   5.480   0.918   3.470 -1.8061 -0.1788 -0.2645
  982WAT     H2 4635   5.438   1.047   3.492  1.5288  0.6696  1.9401
  982WAT    EPW 4636   5.482   0.994   3.453  0.2450  0.0052  0.5538
  983WAT      O 4637   2.710   0.368   4.417  0.1354 -0.6319 -0.0881
  983WAT     H1 4638   2.782   0.414   4.395  0.1322 -0.7485 -0.3492
  983WAT     H2 4639   2.737   0.285   4.416  0.2119 -0.6183  0.6676
  983WAT    EPW 4640   2.725   0.363   4.413 -0.0882  0.5752  0.3341
  984WAT      O 4641   2.261   4.279   3.042  0.0306 -0.5084  0.0480
  984WAT     H1 4642   2.289   4.208   3.085 -0.6281 -0.1903  1.0455
  984WAT     H2 4643   2.207   4.317   3.099  0.1354  0.6336 -0.5916
  984WAT    EPW 4644   2.257   4.274   3.057  0.3370  0.2162  0.1108
  985WAT      O 4645   1.313   3.657   4.981 -0.0073 -0.7214  0.1901
  985WAT     H1 4646   1.372   3.648   5.045  1.2802  0.9433 -0.6969
  985WAT     H2 4647   1.320   3.582   4.937 -0.3823 -1.5771  1.4911
  985WAT    EPW 4648   1.323   3.644   4.984 -0.8782 -0.3313 -0.0239
  986WAT      O 4649   7.430   2.702   7.067 -0.0593 -0.2310  0.5797
  986WAT     H1 4650   7.362   2.756   7.061 -0.1246 -0.1690  1.6237
  986WAT     H2 4651   7.494   2.744   7.026 -0.5929 -0.2066 -0.2513
  986WAT    EPW 4652   7.429   2.716   7.060 -0.1452 -0.5983  0.0918
  987WAT      O 4653   3.994   2.099   4.738  0.2128  0.1587 -0.3719
  987WAT     H1 4654   4.049   2.035   4.759  1.4814  1.4185  0.3275
  987WAT     H2 4655   4.005   2.108   4.652 -0.6212 -1.0909 -0.6406
  987WAT    EPW 4656   4.004   2.091   4.728 -0.3197  0.6974  0.0954
  988WAT      O 4657   0.010   5.887   0.304 -0.1343  0.8009  0.0865
  988WAT     H1 4658  -0.009   5.893   0.389 -1.1231 -0.3703 -0.0330
  988WAT     H2 4659   0.083   5.933   0.296 -0.5836  1.7920  1.3843
  988WAT    EPW 4660   0.018   5.895   0.315  0.0474  0.3634 -0.1198
  989WAT      O 4661   6.925   5.034   2.324 -0.2042 -0.2627 -0.0857
  989WAT     H1 4662   6.958   4.954   2.326  0.5063 -0.0181  3.0692
  989WAT     H2 4663   6.993   5.085   2.346 -1.1403  0.9523  0.0980
  989WAT    EPW 4664   6.940   5.030   2.328 -0.3407  0.4620 -0.6260
  990WAT      O 4665   4.879   0.480   0.183 -0.1255 -0.3106 -0.1730
  990WAT     H1 4666   4.937   0.519   0.235 -1.0766  1.1152 -0.1420
  990WAT     H2 4667   4.858   0.407   0.227  0.1112  0.1830  0.7872
  990WAT    EPW 4668   4.884   0.475   0.197  0.5354  0.5721  0.4488
  991WAT      O 4669   5.593   0.808   5.692 -0.0545  0.0556 -0.2885
  991WAT     H1 4670   5.539   0.850   5.637  0.0523  0.1066 -0.3542
  991WAT     H2 4671   5.662   0.861   5.698  1.1987 -1.1865 -2.3043
  991WAT    EPW 4672   5.595   0.822   5.685 -0.2801  0.5105  0.2831
  992WAT      O 4673   6.263   0.102   6.519  0.0006 -0.0606  0.5948
  992WAT     H1 4674   6.229   0.046   6.576  0.6784 -0.3767  0.7054
  992WAT     H2 4675   6.345   0.112   6.547  0.6010 -0.8545 -0.7723
  992WAT    EPW 4676   6.270   0.095   6.532  0.1274  0.4932 -0.3262
  993WAT      O 4677   2.625   4.003   7.317 -0.1864 -0.4956  0.0971
  993WAT     H1 4678   2.580   4.077   7.308 -0.7608 -0.9347 -0.7790
  993WAT     H2 4679   2.581   3.960   7.379 -0.3847 -0.4811 -0.0302
  993WAT    EPW 4680   2.612   4.007   7.325 -0.2638  0.1326 -0.3735
  994WAT      O 4681   5.033   2.163   6.925  0.0408  0.5596  0.2524
  994WAT     H1 4682   4.971   2.201   6.876 -0.1765  0.4300  0.4256
  994WAT     H2 4683   4.989   2.134   6.995  0.6669  2.5440  1.5357
  994WAT    EPW 4684   5.017   2.164   6.928 -0.3820 -0.7431  0.0519
  995WAT      O 4685   4.415   0.833   3.031  0.0901 -0.2769 -0.1191
  995WAT     H1 4686   4.380   0.774   3.085 -1.2020  2.1998  1.9497
  995WAT     H2 4687   4.355   0.841   2.968 -1.2163  0.9014  1.1957
  995WAT    EPW 4688   4.401   0.826   3.030 -0.5476 -0.2846  0.0297
  996WAT      O 4689   7.609   4.737   4.312 -0.1570  0.4335 -0.4586
  996WAT     H1 4690   7.674   4.780   4.351  0.3539 -0.8372  0.1539
  996WAT     H2 4691   7.643   4.715   4.234 -0.0428  0.2688 -0.3648
  996WAT    EPW 4692   7.624   4.740   4.306 -0.3335 -0.1342 -0.0923
  997WAT      O 4693   0.837   0.124   3.719  0.3428  0.1282  0.4352
  997WAT     H1 4694   0.836   0.037   3.710  0.2248  0.2459 -0.9726
  997WAT     H2 4695   0.841   0.136   3.805 -1.2739 -1.2577  0.7581
  997WAT    EPW 4696   0.837   0.113   3.730  0.0974 -0.4520 -0.4427
  998WAT      O 4697   5.738   6.778   2.399  0.1238 -0.0491  0.0839
  998WAT     H1 4698   5.712   6.720   2.340  0.9001 -0.7036  0.3703
  998WAT     H2 4699   5.670   6.833   2.406 -0.5516 -0.8288 -0.3062
  998WAT    EPW 4700   5.724   6.778   2.392  0.0663  0.1455 -0.1969
  999WAT      O 4701   0.369   2.928   3.015  0.4143  0.1575 -0.1431
  999WAT     H1 4702   0.389   2.987   2.955 -0.8012  2.1804  1.3286
  999WAT     H2 4703   0.301   2.963   3.057 -0.8636 -2.6359  0.3487
  999WAT    EPW 4704   0.362   2.942   3.013 -0.3592  0.1323  0.1842
 1000WAT      O 4705   1.143   0.771   5.346  1.1984  0.2260 -0.0403
 1000WAT     H1 4706   1.179   0.692   5.345 -1.5501 -1.1547  0.0190
 1000WAT     H2 4707   1.174   0.807   5.420  1.8407 -1.1527  0.3840
 1000WAT    EPW 4708   1.153   0.765   5.357  0.5068 -0.0020  0.1129
 1001WAT      O 4709   5.023   4.470   0.913  0.3018  0.4168  0.0027
 1001WAT     H1 4710   5.088   4.521   0.885  0.7237 -0.1954 -0.1504
 1001WAT     H2 4711   4.968   4.470   0.846  1.0136 -0.5338 -0.6057
 1001WAT    EPW 4712   5.025   4.478   0.899 -0.2715 -0.3457 -0.5939
 1002WAT      O 4713   4.538   2.249   2.438 -0.1502  0.0559  0.1000
 1002WAT     H1 4714   4.496   2.175   2.420  0.9928 -0.2253 -1.6486
 1002WAT     H2 4715   4.622   2.224   2.441  0.0313  0.6366  3.2111
 1002WAT    EPW 4716   4.544   2.234   2.436  0.4162 -0.4099  0.1879
 1003WAT      O 4717   1.032   4.220   1.490 -0.6389 -0.2790  0.0760
 1003WAT     H1 4718   1.115   4.204   1.467 -0.7673  0.3265 -0.8764
 1003WAT     H2 4719   0.987   4.199   1.419 -1.1217  1.0012 -0.0299
 1003WAT    EPW 4720   1.038   4.215   1.476 -0.8288  0.0480  0.4029
 1004WAT      O 4721   5.180   4.954   2.041 -0.1856 -0.4607 -0.4750
 1004WAT     H1 4722   5.166   4.874   2.009 -1.5025 -0.1389 -0.7720
 1004WAT     H2 4723   5.202   4.939   2.124 -0.9270 -1.1175 -0.3838
 1004WAT    EPW 4724   5.181   4.940   2.049 -0.2843  0.1651 -0.2982
 1005WAT      O 4725   0.704   3.942   1.634 -0.2737  0.1658 -0.1744
 1005WAT     H1 4726   0.754   4.010   1.612  1.5994 -1.2947 -0.7635
 1005WAT     H2 4727   0.677   3.910   1.558 -1.2049  0.2904  0.0974
 1005WAT    EPW 4728   0.708   3.947   1.620  0.1838  0.3322 -0.2459
 1006WAT      O 4729   0.270   5.235   1.821  0.1209 -0.3282  0.3477
 1006WAT     H1 4730   0.347   5.212   1.856  1.1232  0.8620 -0.9547
 1006WAT     H2 4731   0.232   5.281   1.885  0.8865 -0.1534  0.6925
 1006WAT    EPW 4732   0.276   5.238   1.836  0.2329 -0.2757  0.2742
 1007WAT      O 4733   5.589   6.044   2.791 -0.1223  1.1991 -0.3916
 1007WAT     H1 4734   5.592   5.995   2.718 -1.2498  0.3333  0.0925
 1007WAT     H2 4735   5.584   5.984   2.855  0.7438  1.9464  0.4005
 1007WAT    EPW 4736   5.588   6.028   2.790  0.0223 -0.2923 -0.3385
 1008WAT      O 4737   4.698   5.381   6.283 -0.2065 -0.0032 -0.2341
 1008WAT     H1 4738   4.642   5.360   6.220 -0.6921 -0.4603  0.3457
 1008WAT     H2 4739   4.710   5.306   6.326  0.1090  0.3070  0.2303
 1008WAT    EPW 4740   4.692   5.367   6.280  0.2050 -0.2023  0.0972
 1009WAT      O 4741   7.599   4.762   0.116 -0.1363 -0.1826 -0.3286
 1009WAT     H1 4742   7.666   4.717   0.149 -1.2501 -1.5640  0.1677
 1009WAT     H2 4743   7.637   4.825   0.069  1.5017 -1.1688 -0.4012
 1009WAT    EPW 4744   7.614   4.765   0.114  1.0859  0.1586  0.0326
 1010WAT      O 4745   3.071   3.527   7.378 -0.1138 -0.5953 -0.3865
 1010WAT     H1 4746   3.019   3.462   7.404 -0.1957 -0.5417 -0.4170
 1010WAT     H2 4747   3.151   3.500   7.401 -0.1590 -0.6607 -0.3065
 1010WAT    EPW 4748   3.075   3.513   7.386 -0.2181 -0.0348  0.1293
 1011WAT      O 4749   6.953   4.592   1.417  0.3976  0.4004 -0.2246
 1011WAT     H1 4750   7.013   4.533   1.395  0.3324  0.9128 -2.0032
 1011WAT     H2 4751   6.999   4.665   1.428  0.3252  0.3325  0.5240
 1011WAT    EPW 4752   6.969   4.594   1.415 -0.3623  0.2283  0.3240
 1012WAT      O 4753   1.299   5.716   2.204  0.5380  0.4686 -0.1774
 1012WAT     H1 4754   1.250   5.659   2.160 -0.6694  0.4663  1.1006
 1012WAT     H2 4755   1.264   5.793   2.184  1.6692  0.7326 -1.2765
 1012WAT    EPW 4756   1.287   5.719   2.195  0.1714 -0.4922  0.2847
 1013WAT      O 4757   4.871   4.296   1.075 -0.5313  0.8283 -0.6272
 1013WAT     H1 4758   4.932   4.323   1.019  0.1077  2.6475  0.8310
 1013WAT     H2 4759   4.816   4.364   1.080 -1.0174  0.3924  0.3481
 1013WAT    EPW 4760   4.872   4.310   1.068 -0.0937  0.6651  0.0293
 1014WAT      O 4761   0.409   6.710   5.084 -0.1175 -0.6854 -0.4649
 1014WAT     H1 4762   0.323   6.720   5.098 -0.3092 -1.4014 -1.0691
 1014WAT     H2 4763   0.418   6.624   5.073  0.5232 -0.5097 -1.3688
 1014WAT    EPW 4764   0.398   6.699   5.084 -0.0473 -0.0661  0.2898
 1015WAT      O 4765   1.357   5.284   6.835 -0.6354 -0.2584 -0.1404
 1015WAT     H1 4766   1.417   5.340   6.861 -0.1975 -1.0462  0.6044
 1015WAT     H2 4767   1.400   5.231   6.781 -0.3392 -1.4815  1.2209
 1015WAT    EPW 4768   1.372   5.284   6.831 -0.5055  0.2833  0.0571
 1016WAT      O 4769   5.322   0.649   5.113  0.0303 -0.0385  0.5163
 1016WAT     H1 4770   5.263   0.712   5.099  0.3743  0.0245 -0.8652
 1016WAT     H2 4771   5.390   0.692   5.146  0.1174  0.2614 -0.0422
 1016WAT    EPW 4772   5.323   0.665   5.116  0.0262  0.1754 -0.1386
 1017WAT      O 4773   5.844   1.663   4.906  0.2210  0.4154  0.0215
 1017WAT     H1 4774   5.786   1.714   4.947  0.6118 -0.6191  2.0101
 1017WAT     H2 4775   5.812   1.583   4.918  0.9121 -0.0009 -0.8286
 1017WAT    EPW 4776   5.831   1.659   4.914 -0.8306  0.1710 -0.1066
 1018WAT      O 4777   1.805   2.092   5.208 -0.0391  0.0424  0.2722
 1018WAT     H1 4778   1.767   2.130   5.139  1.7878 -0.2595 -0.9920
 1018WAT     H2 4779   1.852   2.027   5.172  0.8668 -0.1979  1.8068
 1018WAT    EPW 4780   1.807   2.088   5.192 -0.4986  0.0762  0.0799
 1019WAT      O 4781   1.563   4.652   0.562 -0.2832 -0.1654  0.3991
 1019WAT     H1 4782   1.490   4.685   0.528  0.5682  1.4003  0.0343
 1019WAT     H2 4783   1.608   4.722   0.589  0.5946 -1.1606  1.6467
 1019WAT    EPW 4784   1.559   4.667   0.561 -0.3621 -0.6916 -0.1684
 1020WAT      O 4785   6.503   0.681   7.574  0.4598 -0.2104  0.2342
 1020WAT     H1 4786   6.582   0.651   7.596  0.2334 -3.0241 -2.2054
 1020WAT     H2 4787   6.521   0.757   7.534  1.4578  1.0878  2.8825
 1020WAT    EPW 4788   6.517   0.688   7.571 -0.1844 -0.0894  0.0038
 1021WAT      O 4789   1.091   4.739   6.018 -0.6172  0.3295 -0.0285
 1021WAT     H1 4790   1.116   4.816   6.049  0.0254 -0.4695  1.5537
 1021WAT     H2 4791   1.046   4.704   6.084 -0.7609 -0.7092 -0.6545
 1021WAT    EPW 4792   1.088   4.745   6.032 -0.1756 -0.0419  0.5455
 1022WAT      O 4793   4.509   4.936   1.570  0.3462 -0.3104 -0.1771
 1022WAT     H1 4794   4.424   4.938   1.592  0.6334 -0.0926  0.9723
 1022WAT     H2 4795   4.530   4.852   1.580  0.5492 -0.1630  0.7321
 1022WAT    EPW 4796   4.500   4.924   1.575 -0.0003  0.1604  0.4901
 1023WAT      O 4797   6.890   7.423   0.967  0.5559  0.8204 -0.6972
 1023WAT     H1 4798   6.880   7.508   0.982  0.4576  0.8776 -1.0817
 1023WAT     H2 4799   6.973   7.416   0.940  1.2041  0.5186  1.2495
 1023WAT    EPW 4800   6.901   7.434   0.965  0.0572 -0.2431  0.6050
 1024WAT      O 4801   3.823   0.396   0.205  0.1536 -0.1618 -0.2927
 1024WAT     H1 4802   3.785   0.370   0.131 -1.5110 -2.1454  1.1260
 1024WAT     H2 4803   3.794   0.478   0.215 -1.1840 -0.5220 -0.9193
 1024WAT    EPW 4804   3.813   0.404   0.196  0.4906  0.0351  0.4523
 1025WAT      O 4805   6.476   0.501   1.826  0.5032 -0.2472 -0.0506
 1025WAT     H1 4806   6.527   0.432   1.809 -0.7385 -1.0780 -0.5251
 1025WAT     H2 4807   6.532   0.563   1.852  1.7895 -0.9737 -1.0316
 1025WAT    EPW 4808   6.492   0.500   1.827  0.5222 -0.5663  0.6233
 1026WAT      O 4809   5.280   4.259   1.246 -0.4662  0.2501  0.1352
 1026WAT     H1 4810   5.232   4.315   1.291 -2.4399  0.8394 -2.5075
 1026WAT     H2 4811   5.248   4.181   1.268 -2.6513  0.6240 -1.4181
 1026WAT    EPW 4812   5.268   4.255   1.256 -0.7757  0.1129  0.0712
 1027WAT      O 4813   1.289   0.161   3.082 -0.1833  0.0335 -0.0732
 1027WAT     H1 4814   1.258   0.223   3.029 -1.0404 -0.6327 -0.3735
 1027WAT     H2 4815   1.249   0.088   3.054 -0.8730 -0.2993  1.6353
 1027WAT    EPW 4816   1.278   0.159   3.070  0.2813 -0.0778 -0.6526
 1028WAT      O 4817   7.345   2.192   7.250  0.2244  0.1475 -0.3033
 1028WAT     H1 4818   7.292   2.260   7.241  0.1242  0.0607 -0.3673
 1028WAT     H2 4819   7.418   2.218   7.209  0.3840  0.4271  0.1461
 1028WAT    EPW 4820   7.348   2.206   7.243  0.0764  0.1076  0.1451
 1029WAT      O 4821   5.755   2.411   6.173  0.0083 -0.2806  0.3003
 1029WAT     H1 4822   5.791   2.334   6.153  1.2482  0.2633  0.3536
 1029WAT     H2 4823   5.792   2.432   6.249  1.3555  1.3547 -0.7412
 1029WAT    EPW 4824   5.766   2.403   6.181 -0.0453 -0.6768 -0.6330
 1030WAT      O 4825   4.860   3.507   5.722  0.4515 -0.2077  0.1488
 1030WAT     H1 4826   4.914   3.572   5.703 -0.5302  0.6338  0.1486
 1030WAT     H2 4827   4.816   3.494   5.647 -1.5045  1.2523  0.9527
 1030WAT    EPW 4828   4.861   3.515   5.708  0.0631 -0.2875 -0.0393
 1031WAT      O 4829   6.589   3.149   4.567  0.2052 -0.5172 -0.2124
 1031WAT     H1 4830   6.520   3.162   4.515 -0.6410 -1.8104  0.5301
 1031WAT     H2 4831   6.616   3.069   4.545  2.1778  0.3609 -1.2453
 1031WAT    EPW 4832   6.583   3.139   4.556  0.5092  0.0895 -0.2361
 1032WAT      O 4833   2.953   6.758   7.477  0.4960 -0.0403 -0.3051
 1032WAT     H1 4834   3.004   6.829   7.472 -0.0029  0.2405 -2.5483
 1032WAT     H2 4835   2.873   6.790   7.464 -0.2799 -0.5741  2.5091
 1032WAT    EPW 4836   2.949   6.774   7.475  0.1149  0.0516  0.3871
 1033WAT      O 4837   6.374   4.312   3.723 -0.3175  0.1210  0.1605
 1033WAT     H1 4838   6.426   4.300   3.792 -3.4025 -1.5402  2.3990
 1033WAT     H2 4839   6.377   4.236   3.681 -0.9633 -0.0204  0.3570
 1033WAT    EPW 4840   6.382   4.299   3.727  0.6115 -0.0557  0.3534
 1034WAT      O 4841   3.951   1.181   6.914 -0.3076 -0.1183  0.1176
 1034WAT     H1 4842   3.917   1.235   6.855  1.4284  0.2978 -0.5634
 1034WAT     H2 4843   3.909   1.201   6.987 -0.4879  1.3748 -0.3635
 1034WAT    EPW 4844   3.940   1.192   6.916  0.4061  0.5946  0.5084
 1035WAT      O 4845   0.443   4.758   1.323 -0.1880  0.0448  0.4313
 1035WAT     H1 4846   0.475   4.681   1.349  0.4448  0.4785  0.9793
 1035WAT     H2 4847   0.514   4.803   1.300 -0.5320  0.5359  0.3037
 1035WAT    EPW 4848   0.458   4.754   1.323 -0.2007 -0.2497 -0.2586
 1036WAT      O 4849   1.920   4.944   5.307  0.0522  0.0242 -0.5120
 1036WAT     H1 4850   1.912   5.031   5.302  1.4817  0.2381  0.3374
 1036WAT     H2 4851   1.988   4.927   5.255 -0.3720 -0.6278 -0.8623
 1036WAT    EPW 4852   1.929   4.954   5.298 -0.3376 -0.3870  0.2169
 1037WAT      O 4853   6.317   5.091   7.536 -0.0712 -0.8479 -0.4902
 1037WAT     H1 4854   6.335   5.053   7.459  0.2381  2.0659 -2.0194
 1037WAT     H2 4855   6.389   5.137   7.553  0.2457 -2.1678  2.1468
 1037WAT    EPW 4856   6.330   5.093   7.527  0.3063  0.0049 -0.0059
 1038WAT      O 4857   0.315   1.480   5.421 -0.0206 -0.3885 -0.5896
 1038WAT     H1 4858   0.248   1.472   5.477 -0.2802 -1.4661 -1.0386
 1038WAT     H2 4859   0.339   1.398   5.406  0.9990 -0.0400 -0.9372
 1038WAT    EPW 4860   0.308   1.467   5.427 -0.4861 -0.5307  0.2248
 1039WAT      O 4861   0.077   1.938   5.342 -0.3461  0.5764 -0.1039
 1039WAT     H1 4862   0.163   1.923   5.333 -0.0916  1.4526  0.6870
 1039WAT     H2 4863   0.055   1.890   5.412 -0.4796  0.4281 -0.2473
 1039WAT    EPW 4864   0.086   1.928   5.351  0.0263  0.4722 -0.0483
 1040WAT      O 4865   7.144   4.983   2.717  0.4559  0.5209 -0.0524
 1040WAT     H1 4866   7.140   5.063   2.751  1.0962 -0.0175  1.3708
 1040WAT     H2 4867   7.064   4.950   2.732  0.4908  0.5633  0.2277
 1040WAT    EPW 4868   7.132   4.990   2.724 -0.1837  1.3147 -0.0463
 1041WAT      O 4869   3.482   6.403   7.529 -0.2449 -0.3585 -0.3231
 1041WAT     H1 4870   3.436   6.361   7.468  0.3976 -0.9897 -0.3907
 1041WAT     H2 4871   3.538   6.342   7.558  0.7006  0.4316 -0.4160
 1041WAT    EPW 4872   3.484   6.388   7.524  0.1300 -0.0611  0.5545
 1042WAT      O 4873   0.203   1.970   2.265  0.5660  0.1739 -0.0108
 1042WAT     H1 4874   0.271   1.956   2.212  0.6201  1.9689 -0.4847
 1042WAT     H2 4875   0.137   1.983   2.209  0.2302  0.3215  0.4191
 1042WAT    EPW 4876   0.203   1.970   2.249  0.1973 -0.0081  0.6114
 1043WAT      O 4877   0.236   0.841   6.970  0.6199  0.3172 -0.6598
 1043WAT     H1 4878   0.193   0.799   7.033  2.2139 -0.6420 -0.1598
 1043WAT     H2 4879   0.265   0.913   7.008  0.5794  0.3131 -0.6218
 1043WAT    EPW 4880   0.234   0.845   6.985  0.4733 -0.9099  0.1235
 1044WAT      O 4881   4.572   0.622   0.441 -0.7833 -0.1393  0.3956
 1044WAT     H1 4882   4.645   0.595   0.481 -0.1457 -0.7784 -1.1318
 1044WAT     H2 4883   4.600   0.679   0.382 -1.3242 -1.4163 -1.1620
 1044WAT    EPW 4884   4.587   0.626   0.438 -1.2617 -0.0428  0.3510
 1045WAT      O 4885   7.075   3.126   0.096 -0.1452 -0.0495 -0.5455
 1045WAT     H1 4886   7.031   3.201   0.088 -0.2060  0.0889  0.7353
 1045WAT     H2 4887   7.155   3.146   0.069  0.2200  0.9191  1.1008
 1045WAT    EPW 4888   7.080   3.140   0.091 -0.0859  0.3043 -0.1480
 1046WAT      O 4889   7.507   0.781   3.413  0.1472  0.0916 -0.1240
 1046WAT     H1 4890   7.467   0.847   3.453  3.0501  2.0041 -0.0200
 1046WAT     H2 4891   7.487   0.712   3.461 -0.0380  1.5552  2.0428
 1046WAT    EPW 4892   7.498   0.781   3.426  0.5146  1.0297 -0.5932
 1047WAT      O 4893   5.268   2.423   1.935 -0.0156  0.2538  0.1454
 1047WAT     H1 4894   5.231   2.490   1.977 -0.1924 -0.1865  0.7240
 1047WAT     H2 4895   5.352   2.430   1.954  0.1855  1.1670 -1.0389
 1047WAT    EPW 4896   5.275   2.434   1.944  0.8661 -0.2829 -0.4352
 1048WAT      O 4897   1.516   6.083   3.800 -0.3502  0.7452  0.3732
 1048WAT     H1 4898   1.439   6.104   3.767 -1.0102 -1.2518  0.4915
 1048WAT     H2 4899   1.539   6.012   3.755  1.6408  1.5213  0.0505
 1048WAT    EPW 4900   1.508   6.075   3.789  0.3543 -0.5206 -0.0003
 1049WAT      O 4901   6.037   3.112   5.678  0.3331 -0.2686 -0.6644
 1049WAT     H1 4902   6.051   3.027   5.688 -0.6870 -0.3144  0.6052
 1049WAT     H2 4903   5.951   3.120   5.683  0.3208  0.7384 -1.8327
 1049WAT    EPW 4904   6.027   3.101   5.680  0.4998  0.6324 -0.2257
 1050WAT      O 4905   3.805   5.840   2.791 -0.0537  0.1231  0.0381
 1050WAT     H1 4906   3.889   5.830   2.771 -0.5308 -0.9966 -1.6159
 1050WAT     H2 4907   3.782   5.911   2.746  0.0741  0.6573  0.7954
 1050WAT    EPW 4908   3.814   5.849   2.781 -0.4129 -0.1926 -0.0316
 1051WAT      O 4909   4.836   6.911   0.123 -0.0524 -0.3218  0.5051
 1051WAT     H1 4910   4.837   6.963   0.053  2.6523 -0.2588  0.4819
 1051WAT     H2 4911   4.770   6.857   0.107 -0.2597  0.4328 -1.5168
 1051WAT    EPW 4912   4.827   6.911   0.111 -0.6230 -0.7587  0.5101
 1052WAT      O 4913   3.639   4.055   2.215 -0.0705 -0.6399 -0.2350
 1052WAT     H1 4914   3.627   4.138   2.189 -1.3608 -1.0168 -0.9292
 1052WAT     H2 4915   3.581   4.010   2.168  1.7595 -2.2006 -1.1189
 1052WAT    EPW 4916   3.629   4.061   2.204 -0.1325 -0.2589 -0.2350
 1053WAT      O 4917   3.264   0.647   1.325 -0.2026  0.2136  0.7763
 1053WAT     H1 4918   3.284   0.649   1.240 -0.1781 -1.2580  0.7121
 1053WAT     H2 4919   3.300   0.720   1.356  0.1507  0.5735 -0.4003
 1053WAT    EPW 4920   3.272   0.658   1.317 -0.4446 -0.1863 -0.1053
 1054WAT      O 4921   6.253   2.013   7.542 -0.0300 -0.3265 -0.0718
 1054WAT     H1 4922   6.265   2.093   7.574  0.0727 -0.7494  0.9846
 1054WAT     H2 4923   6.250   2.025   7.456  1.3850  0.6428 -0.0110
 1054WAT    EPW 4924   6.254   2.026   7.534 -0.0984  0.1799  0.1547
 1055WAT      O 4925   0.157   6.792   7.167  0.2040  0.1769  0.0965
 1055WAT     H1 4926   0.135   6.793   7.083  1.0017  1.5560 -0.1397
 1055WAT     H2 4927   0.193   6.714   7.179 -0.5776 -0.3128 -0.6492
 1055WAT    EPW 4928   0.159   6.781   7.156 -0.1973  0.7561  0.3922
 1056WAT      O 4929   5.582   0.194   0.894  0.1563 -0.3217 -0.3805
 1056WAT     H1 4930   5.635   0.133   0.929  1.6972  0.6137 -1.0109
 1056WAT     H2 4931   5.521   0.146   0.854  0.1800 -1.4335  0.8205
 1056WAT    EPW 4932   5.581   0.178   0.893 -0.2918  0.0750  0.2071
 1057WAT      O 4933   5.679   4.559   5.852 -0.0129 -0.5985 -0.1517
 1057WAT     H1 4934   5.658   4.557   5.936  2.9355  1.2422  0.7746
 1057WAT     H2 4935   5.675   4.475   5.828 -1.2564 -1.1140  1.6998
 1057WAT    EPW 4936   5.676   4.546   5.861 -0.2172 -0.1044  0.5592
 1058WAT      O 4937   7.528   0.909   4.155  0.0521  0.3346  0.1951
 1058WAT     H1 4938   7.522   0.851   4.090 -1.4931  0.8029 -0.1176
 1058WAT     H2 4939   7.466   0.967   4.137  1.3649  1.9642  0.6617
 1058WAT    EPW 4940   7.518   0.909   4.143  0.4055 -0.1427 -0.4176
 1059WAT      O 4941   0.934   4.344   2.705  0.3172 -0.9662 -0.4260
 1059WAT     H1 4942   0.939   4.259   2.686  0.9941 -0.7091 -1.4670
 1059WAT     H2 4943   0.988   4.353   2.773 -1.0516 -1.6437  0.8224
 1059WAT    EPW 4944   0.943   4.332   2.712 -0.0169 -0.1274  0.1734
 1060WAT      O 4945   6.705   4.124   5.730  0.4562 -0.8328 -0.0517
 1060WAT     H1 4946   6.785   4.150   5.753  0.1968  2.1658 -1.9748
 1060WAT     H2 4947   6.671   4.093   5.804  2.0594  1.5094  1.7925
 1060WAT    EPW 4948   6.712   4.123   5.744 -0.0019  0.1083 -0.0631
 1061WAT      O 4949   5.294   3.267   1.120 -0.4945  0.4315 -0.2413
 1061WAT     H1 4950   5.253   3.215   1.176 -2.0846  0.1119 -1.6253
 1061WAT     H2 4951   5.367   3.289   1.162 -1.2415 -0.4294  1.6025
 1061WAT    EPW 4952   5.299   3.263   1.135  0.2947 -0.2799  0.4125
 1062WAT      O 4953   1.891   2.909   2.881 -0.6476 -0.7196 -0.1363
 1062WAT     H1 4954   1.948   2.921   2.946 -0.2675 -1.6718 -0.2769
 1062WAT     H2 4955   1.928   2.950   2.814 -0.6767 -0.3726  0.0600
 1062WAT    EPW 4956   1.905   2.917   2.881  0.7734 -0.1997  0.3120
 1063WAT      O 4957   5.669   4.881   0.192 -0.3986  0.3116 -0.3825
 1063WAT     H1 4958   5.707   4.938   0.247  2.5751  0.2046 -2.1215
 1063WAT     H2 4959   5.670   4.922   0.116 -0.0842 -1.2864 -1.2831
 1063WAT    EPW 4960   5.675   4.895   0.189  0.0061 -0.1787 -0.2091
 1064WAT      O 4961   2.442   2.054   3.508 -0.0002  0.0061  0.0404
 1064WAT     H1 4962   2.378   2.081   3.455 -0.4360 -1.6574 -0.3534
 1064WAT     H2 4963   2.497   2.013   3.454 -0.1593 -1.2136  0.7786
 1064WAT    EPW 4964   2.441   2.052   3.492 -0.1531 -0.1571 -0.6658
 1065WAT      O 4965   7.595   2.495   2.253 -0.5505 -0.6705  0.6773
 1065WAT     H1 4966   7.682   2.497   2.242 -0.5825 -2.0244  0.0677
 1065WAT     H2 4967   7.565   2.467   2.177 -1.4996 -0.7612  1.0715
 1065WAT    EPW 4968   7.603   2.491   2.240  0.0196 -0.4182 -0.2129
 1066WAT      O 4969   3.701   6.579   0.336 -0.7873 -0.4729  0.0784
 1066WAT     H1 4970   3.628   6.531   0.335 -0.4206 -1.0635  0.6698
 1066WAT     H2 4971   3.721   6.587   0.251 -1.9405  0.3446 -0.1297
 1066WAT    EPW 4972   3.693   6.573   0.323  0.1135 -0.1610  0.3864
 1067WAT      O 4973   0.580   0.500   5.670 -0.0158  0.4555 -0.2269
 1067WAT     H1 4974   0.614   0.568   5.627  0.8088 -2.0727 -4.0829
 1067WAT     H2 4975   0.503   0.487   5.630 -0.3959 -0.5955  0.7872
 1067WAT    EPW 4976   0.574   0.508   5.658  0.1571 -0.1309 -0.1191
 1068WAT      O 4977   1.645   3.719   5.718  0.0339  0.2298  0.3688
 1068WAT     H1 4978   1.568   3.725   5.677 -0.0473  0.8527  0.6046
 1068WAT     H2 4979   1.689   3.662   5.669 -0.1685  0.7247 -0.4240
 1068WAT    EPW 4980   1.640   3.711   5.705 -0.1880  0.1322 -0.0448
 1069WAT      O 4981   5.985   2.960   3.385  0.2619  0.2935 -0.1470
 1069WAT     H1 4982   5.913   2.921   3.355  0.3655 -1.2459  1.4327
 1069WAT     H2 4983   5.954   3.025   3.434 -0.2831 -1.5998  2.2550
 1069WAT    EPW 4984   5.970   2.964   3.388  0.0414  0.4143 -0.4558
 1070WAT      O 4985   3.496   2.610   5.509  0.0290  0.2666 -0.5918
 1070WAT     H1 4986   3.460   2.677   5.552  1.3032  0.8272 -0.3718
 1070WAT     H2 4987   3.429   2.578   5.462 -0.3963  2.3274 -1.5065
 1070WAT    EPW 4988   3.481   2.615   5.508  0.0120 -0.2618 -0.1733
 1071WAT      O 4989   7.540   2.765   2.273  0.9836  0.2846  0.3460
 1071WAT     H1 4990   7.557   2.681   2.258 -0.1051 -0.2404  1.7908
 1071WAT     H2 4991   7.587   2.807   2.212 -0.1574 -1.4314 -1.8406
 1071WAT    EPW 4992   7.550   2.759   2.262  0.2331 -0.3296  0.1493
 1072WAT      O 4993   5.252   1.639   6.765  1.0088  0.0958  0.0133
 1072WAT     H1 4994   5.307   1.586   6.807  0.8159  0.0823  0.2494
 1072WAT     H2 4995   5.179   1.592   6.758  0.6809  0.5085  0.6519
 1072WAT    EPW 4996   5.249   1.624   6.770 -0.0239 -0.2973  0.6433
 1073WAT      O 4997   4.710   6.080   0.139  0.2510 -0.2357 -0.7692
 1073WAT     H1 4998   4.752   6.060   0.066 -0.3588 -0.0073 -1.1912
 1073WAT     H2 4999   4.628   6.095   0.113  0.1458  0.3978 -0.1276
 1073WAT    EPW 5000   4.704   6.080   0.124 -0.2113  0.5227 -0.5449
 1074WAT      O 5001   1.516   6.984   5.491 -0.0762  0.2459  0.0967
 1074WAT     H1 5002   1.601   6.967   5.475  0.4313  2.4001  0.1996
 1074WAT     H2 5003   1.516   7.068   5.514 -2.3816  0.6112 -0.9232
 1074WAT    EPW 5004   1.529   6.994   5.492 -0.0884 -0.8406 -0.1765
 1075WAT      O 5005   3.860   7.511   5.999  0.1834 -0.6717 -0.0589
 1075WAT     H1 5006   3.843   7.587   5.958  1.6002 -0.3780 -0.1454
 1075WAT     H2 5007   3.942   7.493   5.975  0.4626 -1.3428  1.3443
 1075WAT    EPW 5008   3.870   7.520   5.989 -0.1811 -0.1850  0.6054
 1076WAT      O 5009   5.235   2.839   6.028 -0.4993 -0.5919  0.1662
 1076WAT     H1 5010   5.153   2.850   6.053 -0.1870 -1.4234  1.7243
 1076WAT     H2 5011   5.231   2.840   5.941 -1.7317  2.0317  0.1779
 1076WAT    EPW 5012   5.222   2.841   6.019 -0.5598 -0.4441 -0.1087
 1077WAT      O 5013   1.795   1.085   7.425 -0.6788 -0.2641 -0.2585
 1077WAT     H1 5014   1.805   1.116   7.344 -0.1553 -2.2838 -1.0490
 1077WAT     H2 5015   1.770   1.154   7.471  0.6535  1.3308 -1.7957
 1077WAT    EPW 5016   1.793   1.100   7.420  0.6238 -0.0332 -0.0030
 1078WAT      O 5017   0.144   2.910   4.776 -0.4795  0.2412 -1.1208
 1078WAT     H1 5018   0.222   2.917   4.814 -0.6766 -0.1021 -0.6378
 1078WAT     H2 5019   0.140   2.825   4.754 -0.4787  0.3780 -1.6759
 1078WAT    EPW 5020   0.155   2.898   4.778 -0.2539  0.0749 -0.3516
 1079WAT      O 5021   4.116   4.077   0.874  0.2496  0.2088 -0.5986
 1079WAT     H1 5022   4.082   4.013   0.923 -0.6371  1.7299  0.8716
 1079WAT     H2 5023   4.192   4.043   0.847  0.4293 -1.0177  1.2286
 1079WAT    EPW 5024   4.122   4.063   0.877 -0.8430 -0.4180 -0.2082
 1080WAT      O 5025   3.650   6.664   4.820 -0.6061  0.4188  0.0760
 1080WAT     H1 5026   3.615   6.637   4.745  1.7404 -0.2806 -0.8736
 1080WAT     H2 5027   3.592   6.640   4.880 -2.3506  0.6025 -1.4530
 1080WAT    EPW 5028   3.637   6.657   4.818  0.1548 -0.6722  0.0855
 1081WAT      O 5029   1.334   1.910   6.676  0.3026  0.5035 -0.0342
 1081WAT     H1 5030   1.378   1.960   6.620  1.5473 -1.1094 -0.5648
 1081WAT     H2 5031   1.372   1.927   6.753  1.7327 -0.6622 -0.4446
 1081WAT    EPW 5032   1.346   1.920   6.679  0.4134 -0.1438  0.0254
 1082WAT      O 5033   4.299   0.139   6.559 -0.0415  0.5263  0.0092
 1082WAT     H1 5034   4.313   0.184   6.485  0.3884  0.5241  0.0844
 1082WAT     H2 5035   4.328   0.059   6.539  2.5863  1.1372  0.9882
 1082WAT    EPW 5036   4.306   0.134   6.545 -0.1836 -0.0961  0.0400
 1083WAT      O 5037   6.737   1.913   3.253 -0.2266 -0.1212  0.0421
 1083WAT     H1 5038   6.690   1.980   3.221 -0.3984  0.8457  2.1434
 1083WAT     H2 5039   6.820   1.940   3.244 -0.2844  0.2603  0.6315
 1083WAT    EPW 5040   6.743   1.927   3.247  0.2922 -0.2873  0.9098
 1084WAT      O 5041   4.594   1.047   5.075  0.1367 -0.5079  0.3025
 1084WAT     H1 5042   4.664   1.049   5.127  0.1077 -1.9890  0.4603
 1084WAT     H2 5043   4.544   0.985   5.112 -1.4435  0.7582  0.4075
 1084WAT    EPW 5044   4.597   1.038   5.088 -0.4280  1.0379 -0.1076
 1085WAT      O 5045   6.446   0.908   6.354  0.0533 -0.3037  0.5833
 1085WAT     H1 5046   6.516   0.861   6.328  0.4263 -0.1506  1.3036
 1085WAT     H2 5047   6.419   0.866   6.425 -0.9703 -0.7153 -0.0315
 1085WAT    EPW 5048   6.452   0.895   6.360  0.7923 -0.0708  0.1150
 1086WAT      O 5049   2.518   6.164   3.642  0.0259  0.0690  0.4065
 1086WAT     H1 5050   2.599   6.142   3.668  0.3373  0.4744 -0.1786
 1086WAT     H2 5051   2.485   6.089   3.613 -0.1078 -0.2626  1.3914
 1086WAT    EPW 5052   2.525   6.150   3.641 -0.1278  1.3160  0.0052
 1087WAT      O 5053   4.468   4.712   4.996 -0.2361  0.2704  0.3397
 1087WAT     H1 5054   4.536   4.756   5.030 -1.3930  1.7231  0.8720
 1087WAT     H2 5055   4.439   4.665   5.064 -0.3870  0.4299  0.3843
 1087WAT    EPW 5056   4.474   4.712   5.011  0.1297  0.0620  0.2333
 1088WAT      O 5057   2.840   6.311   1.776 -0.4503  0.1371  0.3265
 1088WAT     H1 5058   2.782   6.353   1.826 -0.5728  0.0487  0.2563
 1088WAT     H2 5059   2.916   6.331   1.814 -0.4314  1.0766 -0.1664
 1088WAT    EPW 5060   2.843   6.320   1.789  0.0041  0.2219 -0.3245
 1089WAT      O 5061   4.291   0.979   4.031  0.1521 -0.0368  0.6402
 1089WAT     H1 5062   4.354   0.920   4.018 -0.0149 -0.3373  1.1630
 1089WAT     H2 5063   4.228   0.955   3.975  0.2457 -0.1153  0.5693
 1089WAT    EPW 5064   4.291   0.967   4.021 -0.2252  0.3173 -0.0071
 1090WAT      O 5065   1.066   7.505   0.336 -0.0662  0.3026  0.2130
 1090WAT     H1 5066   1.141   7.480   0.297 -0.5354  0.9182 -1.1597
 1090WAT     H2 5067   1.055   7.446   0.399 -0.0840 -1.7736 -1.6109
 1090WAT    EPW 5068   1.076   7.493   0.339 -0.2097  0.6234 -0.4529
 1091WAT      O 5069   0.072   3.378   7.185  0.1055 -0.8372 -0.1251
 1091WAT     H1 5070   0.096   3.451   7.226 -1.9320 -0.6488  0.8442
 1091WAT     H2 5071   0.092   3.315   7.242 -1.1407 -0.7180  0.4817
 1091WAT    EPW 5072   0.079   3.379   7.199 -0.7306  0.0308  0.4762
 1092WAT      O 5073   3.896   3.353   7.199 -0.3740  0.3860  0.1130
 1092WAT     H1 5074   3.968   3.351   7.149 -0.0592  0.2389  0.5667
 1092WAT     H2 5075   3.850   3.284   7.171 -0.2036  0.3090  0.0190
 1092WAT    EPW 5076   3.900   3.342   7.187  0.5913 -0.6211  0.5420
 1093WAT      O 5077   2.993   4.442   7.412  1.5205 -0.3991 -0.7586
 1093WAT     H1 5078   3.016   4.526   7.405  1.4556 -0.3697 -0.6369
 1093WAT     H2 5079   2.970   4.419   7.331 -1.0341  0.4462 -0.3654
 1093WAT    EPW 5080   2.993   4.451   7.399 -0.3169  0.0484  0.4513
 1094WAT      O 5081   5.963   5.874   0.250  0.2987 -0.0424 -0.3583
 1094WAT     H1 5082   5.928   5.906   0.177 -0.8656  0.7705  0.5194
 1094WAT     H2 5083   5.897   5.830   0.287  0.1966  1.3114  1.2039
 1094WAT    EPW 5084   5.948   5.872   0.245 -0.2141 -0.5242 -1.0418
 1095WAT      O 5085   0.239   6.846   3.396 -0.6919 -0.1971  0.6653
 1095WAT     H1 5086   0.323   6.868   3.397 -0.7633  0.1596 -0.4425
 1095WAT     H2 5087   0.223   6.824   3.479  0.0609  1.3397  1.2606
 1095WAT    EPW 5088   0.249   6.846   3.408 -0.0971  0.3647 -0.7306
 1096WAT      O 5089   4.624   4.794   1.013  0.6627  0.2052 -0.5668
 1096WAT     H1 5090   4.680   4.803   1.080 -0.8240  3.0142  0.5028
 1096WAT     H2 5091   4.645   4.861   0.961 -1.8283  1.6228  0.0868
 1096WAT    EPW 5092   4.635   4.805   1.015  0.0859  0.3175 -0.2074
 1097WAT      O 5093   2.001   5.275   0.322 -0.6345 -0.6650 -0.1214
 1097WAT     H1 5094   2.008   5.322   0.249  0.6115 -1.2123 -0.3740
 1097WAT     H2 5095   1.985   5.195   0.293  1.4108 -1.1982  0.1022
 1097WAT    EPW 5096   1.999   5.270   0.307  0.5818 -0.1828  0.0709
 1098WAT      O 5097   5.368   4.872   0.057 -0.3923  0.3151  0.1835
 1098WAT     H1 5098   5.296   4.822   0.058  0.5601 -1.3063 -2.2753
 1098WAT     H2 5099   5.433   4.814   0.063  0.7771  1.6708  1.4155
 1098WAT    EPW 5100   5.367   4.856   0.058  0.1915  0.5331  0.0507
 1099WAT      O 5101   6.250   2.240   0.998 -0.1407 -0.1515  0.6252
 1099WAT     H1 5102   6.235   2.300   0.937  0.9774 -0.5850 -0.1021
 1099WAT     H2 5103   6.175   2.195   1.001 -1.1535  1.4753  1.4831
 1099WAT    EPW 5104   6.236   2.242   0.990  0.1119 -0.5227  0.1593
 1100WAT      O 5105   6.828   2.876   0.748  0.5461 -0.2163  0.0327
 1100WAT     H1 5106   6.792   2.896   0.670  0.4653 -2.9152 -0.7293
 1100WAT     H2 5107   6.907   2.847   0.727  0.3684 -1.3831  0.9101
 1100WAT    EPW 5108   6.834   2.875   0.733 -0.1313 -0.2212 -0.3090
 1101WAT      O 5109   5.292   6.687   5.890 -0.0579  0.8699  0.0892
 1101WAT     H1 5110   5.249   6.628   5.841  0.0155  0.8663  0.0296
 1101WAT     H2 5111   5.376   6.667   5.876 -0.0001  1.6090 -0.6955
 1101WAT    EPW 5112   5.298   6.675   5.881  0.0323  0.3141 -0.1381
 1102WAT      O 5113   4.267   5.927   4.335 -0.3507 -0.0437 -0.1343
 1102WAT     H1 5114   4.341   5.884   4.321  0.8022  1.5643  0.8179
 1102WAT     H2 5115   4.290   5.993   4.387 -2.7798 -0.5862  1.8596
 1102WAT    EPW 5116   4.281   5.930   4.341 -0.9036  0.2435 -0.1072
 1103WAT      O 5117   2.968   3.754   0.672  0.5570 -0.6724 -0.0901
 1103WAT     H1 5118   3.054   3.762   0.663  0.5156 -0.5137 -0.3695
 1103WAT     H2 5119   2.955   3.668   0.670  0.8882 -0.8094  1.7695
 1103WAT    EPW 5120   2.978   3.742   0.670 -0.4782 -0.2681 -0.0247
 1104WAT      O 5121   4.892   3.911   2.417  0.2253  0.4461 -0.0872
 1104WAT     H1 5122   4.865   3.894   2.498  0.7262 -0.1430 -0.0379
 1104WAT     H2 5123   4.969   3.951   2.429 -0.0114  0.9683 -0.2613
 1104WAT    EPW 5124   4.899   3.915   2.431 -0.2899 -0.1208  0.0546
 1105WAT      O 5125   6.604   2.722   6.188  0.1757  0.6479  0.2826
 1105WAT     H1 5126   6.583   2.722   6.103  1.6748 -1.3694 -0.1427
 1105WAT     H2 5127   6.526   2.724   6.227 -0.5503  2.8764 -1.0555
 1105WAT    EPW 5128   6.589   2.722   6.181  0.0084  0.2928 -0.1245
 1106WAT      O 5129   5.156   1.110   5.854 -0.1197 -0.2807  0.5087
 1106WAT     H1 5130   5.119   1.047   5.807  0.0678  0.4149 -0.6230
 1106WAT     H2 5131   5.091   1.140   5.904 -1.0567  0.6821 -1.1805
 1106WAT    EPW 5132   5.141   1.105   5.854  0.0432  0.1566 -0.3676
 1107WAT      O 5133   3.767   5.443   1.454  0.4311  0.6194  0.3141
 1107WAT     H1 5134   3.769   5.365   1.493 -1.6507  1.8891  3.3010
 1107WAT     H2 5135   3.710   5.431   1.388  1.8369 -0.8407 -0.7445
 1107WAT    EPW 5136   3.759   5.429   1.450  0.3051  1.0739  0.1953
 1108WAT      O 5137   7.432   3.033   5.042 -0.3230 -0.4809  0.1761
 1108WAT     H1 5138   7.504   2.990   5.068  0.3809 -1.6933 -3.2711
 1108WAT     H2 5139   7.371   3.006   5.098  1.4332 -0.9633  2.0029
 1108WAT    EPW 5140   7.434   3.023   5.054  0.3338 -0.4892 -0.0648
 1109WAT      O 5141   1.201   3.741   1.009 -0.4104 -0.1430 -0.2178
 1109WAT     H1 5142   1.138   3.721   1.065  0.3171 -0.4124  0.5306
 1109WAT     H2 5143   1.249   3.801   1.051 -0.3352  0.2908 -0.8922
 1109WAT    EPW 5144   1.199   3.747   1.023  0.4232  0.1803 -0.1648
 1110WAT      O 5145   6.299   2.706   0.147  0.4899 -0.1439 -0.2855
 1110WAT     H1 5146   6.338   2.693   0.224 -0.6571 -0.4104  0.2665
 1110WAT     H2 5147   6.217   2.681   0.161 -0.7179  3.1849 -0.5167
 1110WAT    EPW 5148   6.293   2.701   0.161  0.0572 -0.2631 -0.2620
 1111WAT      O 5149   4.807   2.986   7.407 -0.1003  0.5348  0.2216
 1111WAT     H1 5150   4.817   2.901   7.420 -0.5624  0.6955  1.7589
 1111WAT     H2 5151   4.807   2.993   7.320  0.4911 -0.9503  0.0746
 1111WAT    EPW 5152   4.808   2.974   7.396 -0.1891 -0.6162  0.3909
 1112WAT      O 5153   6.510   3.607   1.806 -0.1733  0.5038 -0.6192
 1112WAT     H1 5154   6.521   3.547   1.744  0.3030  0.1495 -0.1956
 1112WAT     H2 5155   6.539   3.568   1.878 -1.9404  0.4374  0.0979
 1112WAT    EPW 5156   6.516   3.593   1.807  0.1098 -0.3610 -0.0351
 1113WAT      O 5157   0.895   2.992   0.097  0.6605 -0.3984  0.3547
 1113WAT     H1 5158   0.870   2.955   0.022 -0.2831 -1.0318  0.9656
 1113WAT     H2 5159   0.843   2.956   0.156 -0.2892  1.8742  1.0152
 1113WAT    EPW 5160   0.884   2.981   0.095 -0.6941 -0.0936 -0.1442
 1114WAT      O 5161   0.500   3.094   2.846 -0.0238 -0.3638  0.6763
 1114WAT     H1 5162   0.464   3.154   2.795 -2.0046 -0.1693  2.1502
 1114WAT     H2 5163   0.522   3.029   2.791 -0.1532  0.6583 -0.6164
 1114WAT    EPW 5164   0.498   3.093   2.831  0.0185 -0.2696  0.1341
 1115WAT      O 5165   6.386   6.786   4.294 -0.1818  0.3257  0.2875
 1115WAT     H1 5166   6.387   6.701   4.310 -1.7009  0.3816  0.8064
 1115WAT     H2 5167   6.424   6.821   4.364 -0.8376  0.1612  0.7267
 1115WAT    EPW 5168   6.392   6.779   4.306  0.3966  0.7491  0.1659
 1116WAT      O 5169   2.296   5.311   4.892  0.2941  0.1771 -0.3440
 1116WAT     H1 5170   2.256   5.235   4.873  0.6782 -0.2582  0.5121
 1116WAT     H2 5171   2.372   5.285   4.926  0.1444  0.9233  0.6123
 1116WAT    EPW 5172   2.301   5.296   4.894  0.0956  0.1137 -0.0852
 1117WAT      O 5173   4.081   1.251   4.626 -0.2470 -0.1768 -0.5698
 1117WAT     H1 5174   4.053   1.263   4.708 -0.8998 -0.4654 -0.7448
 1117WAT     H2 5175   4.156   1.295   4.623 -0.0885 -0.3780  0.2597
 1117WAT    EPW 5176   4.088   1.259   4.638  0.0829  0.3614 -0.4259
 1118WAT      O 5177   1.684   4.217   1.935 -0.2241  0.1771  0.2515
 1118WAT     H1 5178   1.658   4.199   2.017 -1.4934 -1.9121 -0.5160
 1118WAT     H2 5179   1.771   4.224   1.942 -0.1555 -1.3482  1.5878
 1118WAT    EPW 5180   1.693   4.215   1.948 -0.1179  0.3581  0.7661
 1119WAT      O 5181   0.074   2.101   7.039 -0.3093  0.2022  0.2849
 1119WAT     H1 5182   0.159   2.119   7.047 -0.6547  1.2330  2.7154
 1119WAT     H2 5183   0.035   2.178   7.057 -1.7463 -0.5312  0.4495
 1119WAT    EPW 5184   0.080   2.115   7.043 -0.7273 -0.0831 -0.6133
 1120WAT      O 5185   2.606   6.899   0.381 -0.5227 -0.6012 -0.4777
 1120WAT     H1 5186   2.562   6.955   0.331 -2.0280  0.5077  1.8995
 1120WAT     H2 5187   2.554   6.830   0.387 -0.3060 -0.7712 -0.5358
 1120WAT    EPW 5188   2.592   6.897   0.375 -0.6266  0.3116 -0.3905
 1121WAT      O 5189   4.992   1.774   6.109  0.2562 -0.0885  0.1835
 1121WAT     H1 5190   5.001   1.829   6.042 -0.9031  1.0683  0.9217
 1121WAT     H2 5191   5.071   1.773   6.145  0.1910  1.5473  0.4583
 1121WAT    EPW 5192   5.005   1.782   6.104 -0.0922 -0.1685 -1.1846
 1122WAT      O 5193   3.347   7.133   3.217 -0.2821  0.0340  0.2277
 1122WAT     H1 5194   3.410   7.177   3.177 -0.7430 -0.2121 -0.8093
 1122WAT     H2 5195   3.360   7.150   3.302  0.4058  0.9895 -0.0532
 1122WAT    EPW 5196   3.358   7.142   3.224  1.0451 -0.5783  0.6332
 1123WAT      O 5197   2.174   3.986   2.059 -0.3444  0.1009 -0.2291
 1123WAT     H1 5198   2.226   3.973   1.990 -0.1374 -0.2711 -0.0071
 1123WAT     H2 5199   2.202   3.928   2.118 -0.3795  0.5517  0.2471
 1123WAT    EPW 5200   2.186   3.975   2.058 -0.1882  0.8853  0.3521
 1124WAT      O 5201   6.696   4.724   1.215 -0.1817  0.0751  0.3288
 1124WAT     H1 5202   6.669   4.657   1.264  0.1653 -0.0762  0.3153
 1124WAT     H2 5203   6.645   4.720   1.144 -0.2476 -0.0948  0.3857
 1124WAT    EPW 5204   6.685   4.714   1.212 -0.4312  0.6117  0.4209
 1125WAT      O 5205   1.355   6.956   3.106  0.6328 -0.5608  0.1708
 1125WAT     H1 5206   1.400   6.891   3.142  2.0064  0.5320  0.5355
 1125WAT     H2 5207   1.388   6.962   3.026 -0.9085 -1.5879 -0.5779
 1125WAT    EPW 5208   1.366   6.947   3.100 -0.1124  0.2172 -0.9336
 1126WAT      O 5209   7.020   6.556   2.873  0.3125  0.4909 -0.4735
 1126WAT     H1 5210   7.074   6.609   2.916  1.1564 -1.2112  0.6783
 1126WAT     H2 5211   7.065   6.482   2.866 -1.3883 -0.5807 -0.6548
 1126WAT    EPW 5212   7.034   6.553   2.878  0.2794 -0.2584  0.0132
 1127WAT      O 5213   6.501   7.060   3.382  0.4197 -0.6746 -0.0353
 1127WAT     H1 5214   6.522   7.137   3.419 -0.7291 -0.8353  1.0089
 1127WAT     H2 5215   6.577   7.016   3.383  0.7448 -0.1236  0.7887
 1127WAT    EPW 5216   6.516   7.065   3.388  0.3267 -0.5284  0.2094
 1128WAT      O 5217   4.892   7.324   0.188 -0.2143  0.5350 -0.5930
 1128WAT     H1 5218   4.903   7.238   0.197  0.0225  0.4923 -1.2515
 1128WAT     H2 5219   4.911   7.356   0.266 -1.3506 -0.1094 -0.0196
 1128WAT    EPW 5220   4.896   7.316   0.201 -0.7668 -0.8848 -1.0835
 1129WAT      O 5221   2.616   6.661   2.712  0.2177 -0.0860 -0.0716
 1129WAT     H1 5222   2.608   6.574   2.711  0.9027 -0.1524 -0.1643
 1129WAT     H2 5223   2.560   6.686   2.774 -1.0887 -0.4616 -1.0491
 1129WAT    EPW 5224   2.607   6.652   2.721  0.0612 -0.2496 -0.8494
 1130WAT      O 5225   7.204   6.397   7.325  0.5721  0.2176  0.4601
 1130WAT     H1 5226   7.195   6.407   7.411  1.6730 -0.7753  0.7080
 1130WAT     H2 5227   7.264   6.457   7.303 -0.3989  1.1274  0.1986
 1130WAT    EPW 5228   7.211   6.408   7.334 -0.2601  0.2544 -0.5269
 1131WAT      O 5229   5.142   1.066   3.723 -0.3683  0.2800  0.2890
 1131WAT     H1 5230   5.227   1.056   3.736 -0.3262 -0.0518 -0.2180
 1131WAT     H2 5231   5.132   1.152   3.709 -0.1583  0.3582  0.6222
 1131WAT    EPW 5232   5.153   1.077   3.723  0.1899 -0.2843  0.2705
 1132WAT      O 5233  -0.017   1.924   7.237 -0.5430 -0.0999  0.2354
 1132WAT     H1 5234   0.018   1.990   7.191 -0.9913  1.4227  1.9371
 1132WAT     H2 5235   0.052   1.877   7.262 -0.1231  0.2931 -0.1664
 1132WAT    EPW 5236  -0.002   1.927   7.234 -0.5303  0.1464 -0.4983
 1133WAT      O 5237   2.207   5.060   4.041  0.3619 -0.0536 -0.0210
 1133WAT     H1 5238   2.149   4.995   4.030 -0.3496  0.4315  0.7433
 1133WAT     H2 5239   2.284   5.018   4.045  0.0656 -0.7260 -0.8485
 1133WAT    EPW 5240   2.210   5.044   4.040 -0.5913 -0.1820  0.2591
 1134WAT      O 5241   1.793   0.629   3.751 -0.1730 -0.4210 -0.3301
 1134WAT     H1 5242   1.778   0.574   3.684 -2.0867  0.9878 -1.1711
 1134WAT     H2 5243   1.713   0.646   3.781  0.3469  1.7790 -0.0304
 1134WAT    EPW 5244   1.779   0.623   3.745  0.2535  0.2121 -0.2753
 1135WAT      O 5245   1.492   4.599   2.709 -0.0473 -0.7335  0.4339
 1135WAT     H1 5246   1.406   4.604   2.702  0.0995  1.7045 -1.2648
 1135WAT     H2 5247   1.508   4.620   2.792 -1.0948  0.3107  0.3989
 1135WAT    EPW 5248   1.482   4.603   2.720  0.4510 -0.7773 -0.3873
 1136WAT      O 5249   2.940   4.869   0.413  0.3791 -0.3917 -0.3181
 1136WAT     H1 5250   2.985   4.861   0.339  3.3311  0.6575  1.1729
 1136WAT     H2 5251   2.988   4.925   0.460 -1.6669 -0.5222  2.1559
 1136WAT    EPW 5252   2.954   4.876   0.409 -0.0147  0.3814 -0.1383
 1137WAT      O 5253   7.084   7.430   3.801 -0.4069 -0.5295  0.0292
 1137WAT     H1 5254   7.151   7.374   3.798 -0.2508 -0.3243 -0.2756
 1137WAT     H2 5255   7.121   7.507   3.782 -0.3391 -0.0592  1.8103
 1137WAT    EPW 5256   7.100   7.433   3.798 -0.0563  0.1330 -0.4354
 1138WAT      O 5257   1.373   1.010   5.773  0.3336  0.0288 -0.8259
 1138WAT     H1 5258   1.393   1.095   5.784  0.5860  0.2845 -2.8910
 1138WAT     H2 5259   1.335   0.988   5.849  1.7879  1.5203  0.4234
 1138WAT    EPW 5260   1.371   1.020   5.786 -0.5528 -0.3943 -0.3647
 1139WAT      O 5261   3.500   7.462   4.793 -0.3475  0.1781  0.5922
 1139WAT     H1 5262   3.431   7.473   4.845  0.8509  1.8980  1.9357
 1139WAT     H2 5263   3.480   7.508   4.722 -1.6216 -1.4713 -0.1954
 1139WAT    EPW 5264   3.487   7.470   4.790 -0.2236  0.2901  0.4002
 1140WAT      O 5265   5.863   0.738   7.560  0.3288 -0.4223  0.1591
 1140WAT     H1 5266   5.936   0.720   7.603  0.4334  0.8141  0.5425
 1140WAT     H2 5267   5.891   0.765   7.482  0.1945 -1.4883 -0.2709
 1140WAT    EPW 5268   5.878   0.739   7.555  0.1003 -0.0833 -0.3837
 1141WAT      O 5269   0.662   0.081   0.827  0.3456 -0.0847  0.5296
 1141WAT     H1 5270   0.634   0.014   0.876 -1.6331 -0.4449 -0.9685
 1141WAT     H2 5271   0.657   0.149   0.881  1.2360 -0.9239  1.7210
 1141WAT    EPW 5272   0.657   0.081   0.842  0.0822  0.2336 -0.0587
 1142WAT      O 5273   6.156   3.661   5.134  0.2037 -0.1760  0.1297
 1142WAT     H1 5274   6.190   3.711   5.197  0.7609 -1.3851  0.8223
 1142WAT     H2 5275   6.221   3.652   5.077 -0.2246  0.7159 -0.5249
 1142WAT    EPW 5276   6.170   3.667   5.135 -0.1953  0.2598 -0.1325
 1143WAT      O 5277   6.678   5.690   2.865  0.4436 -0.1265 -0.0941
 1143WAT     H1 5278   6.657   5.775   2.858 -0.6488 -0.2685  1.1029
 1143WAT     H2 5279   6.619   5.651   2.814 -0.0762 -0.2619  0.5880
 1143WAT    EPW 5280   6.666   5.697   2.856  0.2988  0.3556  0.4110
 1144WAT      O 5281   0.633   4.668   4.773  0.0030  0.3260  0.0104
 1144WAT     H1 5282   0.673   4.695   4.700  0.7592  0.2244  0.3783
 1144WAT     H2 5283   0.695   4.674   4.834 -0.7974  1.0509  0.7892
 1144WAT    EPW 5284   0.648   4.673   4.771  0.4138 -0.3299  0.1117
 1145WAT      O 5285   1.845   3.508   1.865 -0.0556 -0.2050  0.5075
 1145WAT     H1 5286   1.759   3.522   1.876 -0.0904  0.4969 -0.5120
 1145WAT     H2 5287   1.882   3.555   1.928 -0.4213 -0.5724  0.9998
 1145WAT    EPW 5288   1.838   3.517   1.876  0.3567  0.0658 -0.0476
 1146WAT      O 5289   4.076   6.284   1.497 -0.3115  0.5777  1.0069
 1146WAT     H1 5290   4.097   6.269   1.580  0.6532 -0.5793  0.5792
 1146WAT     H2 5291   4.152   6.281   1.455 -0.5725  2.6856  0.2462
 1146WAT    EPW 5292   4.090   6.281   1.503  0.3787  0.0402 -0.6181
 1147WAT      O 5293   4.925   0.401   1.665 -0.6104  0.7512 -0.0374
 1147WAT     H1 5294   4.913   0.427   1.583  0.7279 -2.1287 -1.2686
 1147WAT     H2 5295   4.857   0.350   1.681 -1.1327  1.6809  0.9112
 1147WAT    EPW 5296   4.913   0.398   1.656 -0.1553  0.0779 -0.0767
 1148WAT      O 5297   1.498   3.795   6.313  0.6835 -0.5708 -0.1691
 1148WAT     H1 5298   1.435   3.818   6.256  0.8201 -1.5791 -0.7466
 1148WAT     H2 5299   1.535   3.726   6.275  2.7666  0.5411 -0.2760
 1148WAT    EPW 5300   1.494   3.788   6.299  0.4179 -0.4013 -0.3807
 1149WAT      O 5301   3.210   3.637   0.938 -0.1279 -0.2029  1.1003
 1149WAT     H1 5302   3.171   3.657   1.014  0.9570 -0.2085  1.6825
 1149WAT     H2 5303   3.225   3.551   0.945 -0.4290 -0.2914  0.6813
 1149WAT    EPW 5304   3.206   3.627   0.950  0.0298 -0.2124  0.1140
 1150WAT      O 5305   5.423   1.996   4.167 -0.1743  0.0793 -0.3204
 1150WAT     H1 5306   5.342   1.976   4.192 -0.7609  0.3017 -1.9694
 1150WAT     H2 5307   5.415   2.073   4.128  0.9364  0.3455 -0.0692
 1150WAT    EPW 5308   5.410   2.004   4.165 -0.1487  0.1917  0.2744
 1151WAT      O 5309   3.054   3.080   6.961 -0.8592  0.0240 -0.1915
 1151WAT     H1 5310   2.976   3.086   6.999 -0.2719 -2.7675  1.7417
 1151WAT     H2 5311   3.039   3.028   6.893 -1.0584  1.4475 -1.2900
 1151WAT    EPW 5312   3.040   3.074   6.956  0.2803  0.1707  0.5044
 1152WAT      O 5313   7.299   6.618   6.621  0.6164 -0.2657  0.5597
 1152WAT     H1 5314   7.245   6.576   6.675  1.6019 -1.8662  0.3525
 1152WAT     H2 5315   7.357   6.655   6.674  1.3159 -1.4542  0.6672
 1152WAT    EPW 5316   7.299   6.617   6.637  0.9121 -0.2742 -0.4634
 1153WAT      O 5317   7.316   6.147   7.238  0.0166  0.1149  0.3011
 1153WAT     H1 5318   7.353   6.107   7.306 -0.0164 -0.3433  0.0517
 1153WAT     H2 5319   7.263   6.205   7.275  0.7406  0.5591  0.6630
 1153WAT    EPW 5320   7.313   6.149   7.253 -0.2384  0.7771 -0.1531
 1154WAT      O 5321   4.383   2.022   2.158  0.0151 -0.4974  0.2788
 1154WAT     H1 5322   4.322   1.962   2.143 -1.9040  1.0577  1.4502
 1154WAT     H2 5323   4.397   2.016   2.244  0.2408  0.3164  0.3051
 1154WAT    EPW 5324   4.376   2.012   2.169 -0.0680  0.0302 -1.1620
 1155WAT      O 5325   1.411   0.423   1.313  0.3558 -0.0184 -0.2637
 1155WAT     H1 5326   1.493   0.424   1.342  0.0857  1.2920  0.4992
 1155WAT     H2 5327   1.377   0.353   1.351  0.3992  0.8920  1.5361
 1155WAT    EPW 5328   1.418   0.413   1.323 -0.3260 -0.5614 -0.9276
 1156WAT      O 5329   0.363   7.108   0.469 -0.5721 -0.6599  0.4377
 1156WAT     H1 5330   0.362   7.194   0.455 -1.3909 -0.9702 -2.1322
 1156WAT     H2 5331   0.430   7.080   0.420  0.7983 -1.3809  2.6017
 1156WAT    EPW 5332   0.373   7.117   0.460 -0.3031  0.0042 -0.6316
 1157WAT      O 5333   0.605   4.815   0.751  0.3093 -0.0317 -0.2348
 1157WAT     H1 5334   0.624   4.767   0.822  1.1724  2.6902  1.5500
 1157WAT     H2 5335   0.526   4.847   0.770  1.8381  3.3907  1.3441
 1157WAT    EPW 5336   0.596   4.813   0.764  0.0841  0.1025 -0.0570
 1158WAT      O 5337   6.547   0.643   5.169  0.2523 -0.4911  0.3717
 1158WAT     H1 5338   6.493   0.646   5.237  1.5712  1.5266  1.4349
 1158WAT     H2 5339   6.508   0.588   5.114 -2.4693  0.2319  1.4036
 1158WAT    EPW 5340   6.533   0.636   5.171 -0.7639 -0.3737  0.8416
 1159WAT      O 5341   6.663   2.852   1.797  0.1300  0.1353 -0.4747
 1159WAT     H1 5342   6.605   2.790   1.815 -1.1325  1.7844  1.6779
 1159WAT     H2 5343   6.734   2.827   1.840  0.0829 -0.4719 -0.7431
 1159WAT    EPW 5344   6.665   2.839   1.806 -0.5518  0.4112 -1.1739
 1160WAT      O 5345   0.180   1.785   2.771 -0.5764 -0.2028 -0.1170
 1160WAT     H1 5346   0.219   1.835   2.831 -1.1273 -1.4577  1.3442
 1160WAT     H2 5347   0.100   1.772   2.804 -0.2300 -2.6465 -0.0591
 1160WAT    EPW 5348   0.174   1.791   2.784  0.1018  0.0312 -0.2400
 1161WAT      O 5349   0.789   2.066   6.334  0.3287 -0.1642  0.1767
 1161WAT     H1 5350   0.733   2.028   6.389 -3.4956  2.9058 -1.0891
 1161WAT     H2 5351   0.791   2.011   6.266 -1.4384 -0.3409  0.2071
 1161WAT    EPW 5352   0.781   2.052   6.332 -0.3885  0.0758  0.4547
 1162WAT      O 5353   5.467   0.076   2.657  0.0952  0.5049 -0.1465
 1162WAT     H1 5354   5.523   0.011   2.674  1.7903  1.7043 -0.8775
 1162WAT     H2 5355   5.461   0.118   2.734 -2.9999 -1.8031  1.1035
 1162WAT    EPW 5356   5.474   0.073   2.671 -0.7316 -0.0353  0.3786
 1163WAT      O 5357   7.392   5.471   1.516 -0.0398 -0.0748 -0.4335
 1163WAT     H1 5358   7.375   5.554   1.495  0.6890  0.5377  1.2104
 1163WAT     H2 5359   7.477   5.472   1.536 -0.1635 -1.0724  0.2124
 1163WAT    EPW 5360   7.402   5.484   1.516  0.2836  0.1936 -0.3919
 1164WAT      O 5361   7.521   2.435   4.084  0.8228  0.1208 -0.1384
 1164WAT     H1 5362   7.591   2.387   4.060 -0.7764 -2.1315 -0.5997
 1164WAT     H2 5363   7.460   2.412   4.026 -0.9611  0.3163  1.5747
 1164WAT    EPW 5364   7.523   2.424   4.072 -0.0811  0.0605 -0.1534
 1165WAT      O 5365   7.404   1.405   5.746 -0.8118 -0.1362  0.6587
 1165WAT     H1 5366   7.423   1.395   5.830  0.9803 -0.8771  0.2269
 1165WAT     H2 5367   7.432   1.330   5.710 -1.1329  0.3439 -0.6548
 1165WAT    EPW 5368   7.411   1.392   5.753 -0.8257  0.5430 -0.2709
 1166WAT      O 5369   1.916   6.924   1.236 -0.2653 -0.3492  0.2005
 1166WAT     H1 5370   1.832   6.919   1.257 -0.2571  2.9255  1.6811
 1166WAT     H2 5371   1.936   7.009   1.249  2.6829 -0.4276 -2.4246
 1166WAT    EPW 5372   1.907   6.936   1.241 -0.1061  0.1749  0.2970
 1167WAT      O 5373   0.940   3.169   5.612 -0.0529 -0.3115  0.1445
 1167WAT     H1 5374   0.894   3.214   5.553  0.9111  0.8092  0.1995
 1167WAT     H2 5375   1.006   3.136   5.567  0.6598  0.5051  0.5446
 1167WAT    EPW 5376   0.943   3.171   5.597 -0.4221 -0.0920 -0.6135
 1168WAT      O 5377   2.485   4.756   1.194  0.2847 -0.0571 -0.0151
 1168WAT     H1 5378   2.442   4.712   1.256  1.4777  1.3075  1.9011
 1168WAT     H2 5379   2.443   4.833   1.191  0.2567 -0.0925 -0.9429
 1168WAT    EPW 5380   2.472   4.761   1.203 -0.0796 -0.5586  0.7645
 1169WAT      O 5381   6.530   1.920   3.423  0.5655 -0.4453  0.4199
 1169WAT     H1 5382   6.565   1.975   3.481  1.4323 -1.5800  1.0120
 1169WAT     H2 5383   6.597   1.899   3.372 -0.4040  1.4633 -1.8543
 1169WAT    EPW 5384   6.545   1.925   3.424 -0.1134 -0.1418  0.5002
 1170WAT      O 5385   7.369   4.423   3.165  0.4234  0.1143 -0.2186
 1170WAT     H1 5386   7.442   4.375   3.163  1.5976  1.7762  0.0372
 1170WAT     H2 5387   7.365   4.458   3.085  1.1458  1.7021  0.4003
 1170WAT    EPW 5388   7.379   4.421   3.153 -0.6547 -1.1045  0.2777
 1171WAT      O 5389   3.298   6.942   6.681  0.2650 -0.0024  0.0886
 1171WAT     H1 5390   3.323   7.010   6.631  1.8935  1.3616  2.5313
 1171WAT     H2 5391   3.372   6.898   6.693 -0.2476 -0.7152  0.7082
 1171WAT    EPW 5392   3.313   6.946   6.675 -0.4258  0.7866 -0.0114
 1172WAT      O 5393   2.765   2.644   3.795  0.1454 -0.0101  1.0297
 1172WAT     H1 5394   2.761   2.583   3.857 -2.7338  0.0579  1.0143
 1172WAT     H2 5395   2.694   2.692   3.809 -1.9569 -1.2669 -3.5788
 1172WAT    EPW 5396   2.754   2.642   3.807 -0.5986  0.6020  0.4017
 1173WAT      O 5397   1.251   2.539   4.776  0.0737  0.5887 -0.0610
 1173WAT     H1 5398   1.255   2.482   4.842  0.5350  0.4542 -0.1984
 1173WAT     H2 5399   1.183   2.590   4.797 -0.3744 -0.0398  0.0398
 1173WAT    EPW 5400   1.241   2.538   4.789 -0.4599  0.5647 -0.5555
 1174WAT      O 5401   0.270   6.060   6.036  0.3453  0.0412  0.2303
 1174WAT     H1 5402   0.260   5.989   6.087  0.5569  0.4816  0.9010
 1174WAT     H2 5403   0.262   6.028   5.956  0.5933 -0.7801  0.5140
 1174WAT    EPW 5404   0.268   6.045   6.032 -0.1501  0.6815  1.1636
 1175WAT      O 5405   0.549   3.230   3.608  0.5521 -0.2079  0.0600
 1175WAT     H1 5406   0.532   3.271   3.532  0.6047 -1.2471 -0.5328
 1175WAT     H2 5407   0.633   3.207   3.601  0.4192 -0.7564  0.2057
 1175WAT    EPW 5408   0.559   3.232   3.596  0.6753  0.0519  0.1719
 1176WAT      O 5409   0.595   2.905   5.639 -0.3746  0.5271  0.6000
 1176WAT     H1 5410   0.670   2.867   5.614 -1.3877 -0.7256 -0.7351
 1176WAT     H2 5411   0.582   2.965   5.577 -0.8345  0.2414  0.4183
 1176WAT    EPW 5412   0.604   2.908   5.626  0.4036  0.3441 -0.1803
 1177WAT      O 5413   7.110   3.269   5.591 -0.1630 -0.3324  0.4628
 1177WAT     H1 5414   7.132   3.352   5.604  0.5336 -0.5626  0.8004
 1177WAT     H2 5415   7.140   3.251   5.511  1.4969 -0.8202  1.1484
 1177WAT    EPW 5416   7.118   3.278   5.581 -0.6463  0.6417 -0.1903
 1178WAT      O 5417   7.560   1.026   5.145 -0.2971 -0.2035  0.0705
 1178WAT     H1 5418   7.498   0.993   5.197 -0.4427 -0.0139  0.0196
 1178WAT     H2 5419   7.548   0.984   5.069 -0.2154 -0.3312  0.1270
 1178WAT    EPW 5420   7.549   1.015   5.141 -0.2298  0.0745 -0.3687
 1179WAT      O 5421   4.788   2.002   1.949  0.4127 -0.1339  0.5852
 1179WAT     H1 5422   4.799   2.061   2.012 -1.5548  0.7361  0.1794
 1179WAT     H2 5423   4.738   1.942   1.986  1.7363 -1.2025  0.7352
 1179WAT    EPW 5424   4.782   2.002   1.964 -0.0752  0.2473  0.0561
 1180WAT      O 5425   7.237   1.084   5.502 -0.0980  0.0107 -0.1761
 1180WAT     H1 5426   7.227   0.999   5.481 -1.9347  0.5613 -1.9447
 1180WAT     H2 5427   7.220   1.086   5.588  1.1392 -1.5376  0.1507
 1180WAT    EPW 5428   7.233   1.072   5.511 -0.0181  0.2966 -0.0662
 1181WAT      O 5429   4.131   0.492   7.555 -0.2468 -0.1931 -0.1663
 1181WAT     H1 5430   4.195   0.516   7.609  0.5647 -0.5119 -0.9744
 1181WAT     H2 5431   4.064   0.542   7.580 -0.2682 -1.1165  1.9012
 1181WAT    EPW 5432   4.131   0.503   7.567  0.2277  0.0261 -0.0038
 1182WAT      O 5433   5.252   2.333   5.503 -0.2667 -0.2140 -0.0784
 1182WAT     H1 5434   5.210   2.390   5.554 -3.1580 -0.0612 -2.3717
 1182WAT     H2 5435   5.217   2.256   5.525  0.2674 -0.4845 -0.1584
 1182WAT    EPW 5436   5.240   2.330   5.514  0.5281  0.1352  0.7626
 1183WAT      O 5437   2.707   3.158   7.371 -0.1156  0.1089 -0.1890
 1183WAT     H1 5438   2.778   3.204   7.394  0.9124 -0.9413 -1.1572
 1183WAT     H2 5439   2.641   3.204   7.406  1.0184  1.1631  0.6601
 1183WAT    EPW 5440   2.707   3.172   7.380  0.3487  0.4304  0.3416
 1184WAT      O 5441   2.054   5.108   2.479  0.0500  0.2525 -0.1011
 1184WAT     H1 5442   2.026   5.181   2.517 -0.3890  0.2262 -0.3792
 1184WAT     H2 5443   2.103   5.071   2.541 -0.1058  0.5508  0.2020
 1184WAT    EPW 5444   2.057   5.113   2.494  0.5251  0.0772  0.1242
 1185WAT      O 5445   5.920   5.250   6.034 -0.1615 -0.0453  0.0718
 1185WAT     H1 5446   5.892   5.195   6.095  1.6198 -1.2683 -0.1443
 1185WAT     H2 5447   5.994   5.283   6.068 -1.0699  2.1344  0.1246
 1185WAT    EPW 5448   5.927   5.247   6.048  0.1806  0.0471 -0.4765
 1186WAT      O 5449   6.296   6.011   3.628  0.1477  0.0665 -0.6959
 1186WAT     H1 5450   6.234   5.953   3.606  0.3647 -0.3869 -0.1090
 1186WAT     H2 5451   6.251   6.084   3.641 -0.3178 -0.3588  0.1185
 1186WAT    EPW 5452   6.280   6.013   3.627  0.0389  0.0343  0.5965
 1187WAT      O 5453   3.507   5.265   5.393 -0.1517  0.6235  0.8882
 1187WAT     H1 5454   3.589   5.238   5.401 -0.2448  0.2849  0.6840
 1187WAT     H2 5455   3.460   5.198   5.423 -0.5352 -0.7117 -2.3296
 1187WAT    EPW 5456   3.512   5.251   5.399 -0.2231  0.1568 -0.1074
 1188WAT      O 5457   0.182   5.580   1.677  0.0932 -0.5227 -0.1848
 1188WAT     H1 5458   0.129   5.512   1.667 -1.4018  0.6573 -0.8483
 1188WAT     H2 5459   0.260   5.550   1.651 -0.8120 -1.5912 -1.8275
 1188WAT    EPW 5460   0.186   5.566   1.671  0.0452 -0.1086 -0.3141
 1189WAT      O 5461   7.090   2.507   2.414 -0.0153  0.2630  0.5155
 1189WAT     H1 5462   7.132   2.434   2.390 -0.6879  0.4093 -1.2806
 1189WAT     H2 5463   7.151   2.569   2.404  0.0296  0.1755  0.2237
 1189WAT    EPW 5464   7.105   2.506   2.409  0.4528  0.6641 -0.2084
 1190WAT      O 5465   6.190   6.951   5.834  0.0931 -0.6956 -0.2723
 1190WAT     H1 5466   6.137   6.904   5.884  0.3597  0.0666  0.7643
 1190WAT     H2 5467   6.257   6.970   5.887  0.4009  0.1037 -0.9196
 1190WAT    EPW 5468   6.192   6.947   5.849 -0.2886  0.0984  0.9317
 1191WAT      O 5469   4.651   2.764   4.141 -0.1949 -0.3180 -0.4557
 1191WAT     H1 5470   4.587   2.729   4.093 -0.9676  1.1774 -0.5752
 1191WAT     H2 5471   4.620   2.757   4.223 -0.3468  0.0553 -0.4791
 1191WAT    EPW 5472   4.637   2.758   4.146 -0.4781 -0.0853 -0.0998
 1192WAT      O 5473   3.724   4.596   2.151 -0.7000 -0.2788  0.3381
 1192WAT     H1 5474   3.800   4.606   2.194 -0.3043 -1.4551 -0.0615
 1192WAT     H2 5475   3.675   4.661   2.182  0.7531  1.0621 -0.0274
 1192WAT    EPW 5476   3.728   4.607   2.162 -0.2869  0.4135  0.4791
 1193WAT      O 5477   4.639   2.321   7.327  0.7428  0.1279  0.4201
 1193WAT     H1 5478   4.610   2.349   7.249  0.9896  0.5432  0.4790
 1193WAT     H2 5479   4.649   2.235   7.315  0.0118  0.0627  0.2314
 1193WAT    EPW 5480   4.636   2.312   7.314  0.2628 -0.9594  0.0160
 1194WAT      O 5481   3.186   4.840   7.030  0.1820 -0.3321 -0.4830
 1194WAT     H1 5482   3.272   4.853   7.030  0.1929  0.1688  1.8289
 1194WAT     H2 5483   3.178   4.760   7.063 -0.2357 -0.1196 -0.0536
 1194WAT    EPW 5484   3.198   4.830   7.035 -0.1298  0.0809 -0.0497
 1195WAT      O 5485   0.259   2.187   5.337 -0.3486 -0.7529 -0.4173
 1195WAT     H1 5486   0.204   2.121   5.324 -2.4120  0.5783  1.0293
 1195WAT     H2 5487   0.295   2.200   5.258 -0.8119 -2.7523 -0.9990
 1195WAT    EPW 5488   0.256   2.179   5.323 -0.4357 -0.3106 -0.0445
 1196WAT      O 5489   1.520   1.563   4.436  0.1236  0.0449  0.3491
 1196WAT     H1 5490   1.550   1.614   4.500 -0.3566 -2.6384  2.9303
 1196WAT     H2 5491   1.575   1.495   4.436 -0.8070 -0.7599 -1.0212
 1196WAT    EPW 5492   1.533   1.560   4.445  0.5002 -0.4280  0.1634
 1197WAT      O 5493   0.375   2.153   0.599 -0.2604 -0.4986 -0.7632
 1197WAT     H1 5494   0.390   2.070   0.622 -0.5325 -0.2751  0.2470
 1197WAT     H2 5495   0.290   2.164   0.617 -0.4962 -0.3155 -1.9167
 1197WAT    EPW 5496   0.365   2.142   0.605 -0.3437 -0.3136 -0.0424
 1198WAT      O 5497   1.837   5.091   4.316 -0.2174 -0.0910 -0.7850
 1198WAT     H1 5498   1.778   5.035   4.287  0.3720 -1.2895  0.2483
 1198WAT     H2 5499   1.797   5.169   4.309 -1.1799 -0.6574 -1.8847
 1198WAT    EPW 5500   1.823   5.094   4.311  0.1835  0.0431  0.4193
 1199WAT      O 5501   5.787   0.576   6.729 -0.0303  0.1483 -0.2030
 1199WAT     H1 5502   5.745   0.627   6.673 -0.8417 -2.0940 -1.8066
 1199WAT     H2 5503   5.723   0.542   6.778  0.3078 -0.3978 -0.1265
 1199WAT    EPW 5504   5.772   0.578   6.728  0.2396 -0.2294  0.3151
 1200WAT      O 5505  -0.005   0.505   6.105  0.1114 -0.3510 -0.0967
 1200WAT     H1 5506   0.067   0.509   6.153 -0.6501 -1.4883  1.2119
 1200WAT     H2 5507  -0.049   0.577   6.127  0.5357  0.0052 -0.4013
 1200WAT    EPW 5508  -0.001   0.516   6.115 -0.0669 -0.0930  0.4350
 1201WAT      O 5509   0.482   3.281   5.698  0.3396  0.7994  0.1309
 1201WAT     H1 5510   0.502   3.223   5.760  1.6134  1.0710  0.0003
 1201WAT     H2 5511   0.494   3.237   5.624  2.2543  1.4443 -0.0037
 1201WAT    EPW 5512   0.487   3.266   5.696 -0.5203 -0.4129  0.1108
 1202WAT      O 5513   1.713   3.794   2.474 -0.1345  0.3543 -0.1950
 1202WAT     H1 5514   1.682   3.822   2.397  0.5386 -1.5853 -1.2469
 1202WAT     H2 5515   1.789   3.836   2.482  0.2419 -0.1098 -1.0998
 1202WAT    EPW 5516   1.720   3.804   2.464  0.2818 -0.4478  0.2296
 1203WAT      O 5517   6.579   6.861   3.009  0.3798  0.1649 -0.0408
 1203WAT     H1 5518   6.582   6.778   3.035  0.4332 -0.0974 -0.8349
 1203WAT     H2 5519   6.595   6.856   2.923 -1.0682  0.8495 -0.3932
 1203WAT    EPW 5520   6.582   6.848   3.000 -0.2769  0.7406 -0.3230
 1204WAT      O 5521   5.814   2.072   4.072 -0.5611  0.4723 -0.5007
 1204WAT     H1 5522   5.801   2.157   4.057  1.8242  1.0145  0.1010
 1204WAT     H2 5523   5.786   2.061   4.154  1.5299  1.3672  0.4075
 1204WAT    EPW 5524   5.808   2.083   4.082 -0.5770  0.3911  0.3056
 1205WAT      O 5525   6.481   4.218   3.063 -0.2873  0.1658 -1.0362
 1205WAT     H1 5526   6.423   4.213   3.128  0.0323  1.1005 -0.6584
 1205WAT     H2 5527   6.431   4.231   2.992 -0.5568  0.8128 -0.7360
 1205WAT    EPW 5528   6.465   4.219   3.062 -0.0169 -0.4240 -0.3168
 1206WAT      O 5529   4.514   0.782   5.627 -0.0625  0.0355  0.3065
 1206WAT     H1 5530   4.557   0.746   5.560  0.2960  0.6903  0.1727
 1206WAT     H2 5531   4.449   0.826   5.588 -1.6820 -1.9611  0.5691
 1206WAT    EPW 5532   4.510   0.783   5.611  0.2558 -0.5714 -0.1196
 1207WAT      O 5533   4.099   4.030   2.286  0.1389  0.2876  0.3279
 1207WAT     H1 5534   4.054   4.015   2.213 -0.1428  0.2957  0.4949
 1207WAT     H2 5535   4.077   4.112   2.307 -2.0465 -0.6088  1.9432
 1207WAT    EPW 5536   4.089   4.040   2.279 -0.1910  0.0764  0.0663
 1208WAT      O 5537   1.203   3.936   5.174  0.9670 -0.3194 -0.1938
 1208WAT     H1 5538   1.131   3.920   5.220 -0.4128 -0.3297 -2.2219
 1208WAT     H2 5539   1.251   3.864   5.186  0.3701 -0.5838  0.6996
 1208WAT    EPW 5540   1.200   3.923   5.183 -0.5906  0.0172  0.2319
 1209WAT      O 5541   5.296   3.343   2.340 -0.4118 -0.2873 -0.1267
 1209WAT     H1 5542   5.324   3.303   2.268 -0.6181  0.2054 -0.4821
 1209WAT     H2 5543   5.242   3.404   2.311 -0.4734 -0.0590  0.4436
 1209WAT    EPW 5544   5.292   3.346   2.325  0.4463  0.3081 -0.0269
 1210WAT      O 5545   0.805   5.259   2.464 -0.3533 -0.1249 -0.1906
 1210WAT     H1 5546   0.726   5.231   2.487 -0.3139 -0.1831 -0.1273
 1210WAT     H2 5547   0.789   5.310   2.394 -1.1331  4.0640  2.6414
 1210WAT    EPW 5548   0.791   5.263   2.457 -0.3497 -0.2215 -0.3571
 1211WAT      O 5549   3.990   7.020   6.670 -0.0323  0.1416  0.4921
 1211WAT     H1 5550   3.904   7.008   6.668 -0.1646  0.6592  1.9287
 1211WAT     H2 5551   4.020   6.948   6.709  0.2592 -0.3283 -0.5800
 1211WAT    EPW 5552   3.982   7.008   6.676  0.2708 -0.5539 -0.7986
 1212WAT      O 5553   3.616   2.947   1.400  0.1189  0.1435  0.0075
 1212WAT     H1 5554   3.699   2.925   1.388  0.2473  0.0907  0.9124
 1212WAT     H2 5555   3.621   3.030   1.428 -0.0902  0.0032  0.4848
 1212WAT    EPW 5556   3.629   2.956   1.403 -0.1314  0.6427 -0.1155
 1213WAT      O 5557   6.005   3.694   4.308 -0.1167 -0.0966 -0.0307
 1213WAT     H1 5558   5.988   3.756   4.250 -1.1904 -0.3010  0.0447
 1213WAT     H2 5559   6.014   3.739   4.383  0.8327  0.1207 -0.2569
 1213WAT    EPW 5560   6.004   3.710   4.311  0.1735  0.2620 -0.2451
 1214WAT      O 5561   3.869   6.040   5.945 -0.2660  0.3380  0.3606
 1214WAT     H1 5562   3.804   6.092   5.972 -0.2928 -0.8297  2.7805
 1214WAT     H2 5563   3.908   6.015   6.020  0.0646 -2.6907 -0.6892
 1214WAT    EPW 5564   3.865   6.044   5.960 -0.4689  0.6016 -0.2394
 1215WAT      O 5565   6.956   7.613   3.526  0.4801  0.6030 -0.3353
 1215WAT     H1 5566   6.938   7.636   3.444 -0.0323  1.7385  0.0691
 1215WAT     H2 5567   6.936   7.528   3.529  1.7913  0.1971 -1.7234
 1215WAT    EPW 5568   6.950   7.604   3.514 -0.3589 -0.1523 -0.4041
 1216WAT      O 5569   7.376   4.603   2.911 -0.2752 -0.5390  0.0580
 1216WAT     H1 5570   7.459   4.611   2.936 -0.3535  3.5440 -0.2231
 1216WAT     H2 5571   7.382   4.579   2.827  0.5613 -0.9143  0.2202
 1216WAT    EPW 5572   7.389   4.601   2.902 -0.8519 -0.0709 -0.3432
 1217WAT      O 5573   5.371   0.612   4.351  0.1638 -0.1747 -0.1964
 1217WAT     H1 5574   5.403   0.686   4.317 -1.3617  0.9842  0.7355
 1217WAT     H2 5575   5.404   0.610   4.431  0.9500 -1.0482 -0.5180
 1217WAT    EPW 5576   5.380   0.623   4.358  0.3661  0.6862 -0.7232
 1218WAT      O 5577   4.401   6.868   5.291 -0.3602 -0.2716  0.5150
 1218WAT     H1 5578   4.386   6.833   5.370  0.2710  0.9145  1.1825
 1218WAT     H2 5579   4.321   6.874   5.257 -0.8872  0.9249  1.8386
 1218WAT    EPW 5580   4.387   6.863   5.298  0.5862  0.0111 -0.2308
 1219WAT      O 5581   1.576   2.347   2.731  0.1224  0.3317 -0.6774
 1219WAT     H1 5582   1.576   2.304   2.807  3.3369  0.9118 -0.1713
 1219WAT     H2 5583   1.503   2.395   2.734 -0.5226 -0.6753  1.4350
 1219WAT    EPW 5584   1.565   2.348   2.743 -0.0506 -0.3017 -0.5699
 1220WAT      O 5585   1.343   5.391   6.562  0.6679 -0.1998 -0.4140
 1220WAT     H1 5586   1.295   5.328   6.597  0.8634  0.1126  0.4300
 1220WAT     H2 5587   1.289   5.429   6.506 -0.1250  0.2310  0.6128
 1220WAT    EPW 5588   1.328   5.387   6.559 -0.5759  0.0801  0.4379
 1221WAT      O 5589   7.110   0.406   2.136 -0.2269  0.0536  0.0742
 1221WAT     H1 5590   7.130   0.491   2.137 -2.6344  0.6870  1.3885
 1221WAT     H2 5591   7.148   0.375   2.208  1.5792 -0.2911 -0.9707
 1221WAT    EPW 5592   7.118   0.414   2.147 -0.3747  0.3366  0.2050
 1222WAT      O 5593   0.193   1.103   0.344  0.2572 -0.3792  0.1489
 1222WAT     H1 5594   0.277   1.091   0.321  0.7074  0.3325  1.3301
 1222WAT     H2 5595   0.168   1.024   0.370  0.8621 -0.3957  0.7016
 1222WAT    EPW 5596   0.202   1.089   0.344  0.0360  0.1701  0.1950
 1223WAT      O 5597   7.578   2.322   7.113  0.0565 -0.1678 -0.2232
 1223WAT     H1 5598   7.638   2.382   7.135 -1.2271  1.1302 -0.0859
 1223WAT     H2 5599   7.533   2.361   7.049 -1.3219 -0.6269  0.4253
 1223WAT    EPW 5600   7.580   2.337   7.107 -0.0027  0.4155  0.6535
 1224WAT      O 5601   6.932   3.636   3.586 -0.0346  0.2901  0.6279
 1224WAT     H1 5602   6.964   3.671   3.513 -0.0087  1.8508  1.3554
 1224WAT     H2 5603   6.871   3.693   3.612 -0.9719 -0.8958  1.1396
 1224WAT    EPW 5604   6.928   3.649   3.579 -0.1009 -0.3293  0.2669
 1225WAT      O 5605   1.810   3.917   4.494 -0.8785  0.7619  0.0210
 1225WAT     H1 5606   1.863   3.870   4.545 -0.3711 -0.2215 -1.3745
 1225WAT     H2 5607   1.856   3.989   4.477 -0.2034  0.1778 -0.6943
 1225WAT    EPW 5608   1.824   3.921   4.499  0.2873 -0.2318  0.2156
 1226WAT      O 5609   1.507   0.154   0.277  0.0801  0.4615  0.2324
 1226WAT     H1 5610   1.439   0.178   0.228  0.0214  0.2560  0.2116
 1226WAT     H2 5611   1.475   0.088   0.326  0.7490 -0.8978 -1.0762
 1226WAT    EPW 5612   1.492   0.147   0.277  0.2236 -0.3370  0.1034
 1227WAT      O 5613   2.180   6.093   5.570  0.4978 -0.1879 -0.8192
 1227WAT     H1 5614   2.266   6.089   5.556  0.5995 -0.6049 -0.0843
 1227WAT     H2 5615   2.147   6.046   5.505  0.6508  1.9423 -2.5608
 1227WAT    EPW 5616   2.188   6.086   5.558 -0.0293  0.2915 -0.7525
 1228WAT      O 5617   5.261   4.606   6.858 -0.1202  0.1905 -0.1796
 1228WAT     H1 5618   5.333   4.607   6.809  0.0836 -0.7860  0.0760
 1228WAT     H2 5619   5.201   4.643   6.806  0.1381 -0.6303 -1.1110
 1228WAT    EPW 5620   5.262   4.611   6.843  0.8625  0.4268 -0.0973
 1229WAT      O 5621   0.988   5.357   4.769 -0.1829 -0.0438 -0.1797
 1229WAT     H1 5622   1.038   5.318   4.709  2.1388  1.5037  0.6366
 1229WAT     H2 5623   1.034   5.350   4.843 -0.6273  2.3560  0.4108
 1229WAT    EPW 5624   1.002   5.350   4.771  0.3119 -0.0407  0.0441
 1230WAT      O 5625   4.069   1.689   6.088 -0.0523 -0.1575 -0.2165
 1230WAT     H1 5626   4.077   1.609   6.055  0.4644 -0.4042  0.4787
 1230WAT     H2 5627   3.987   1.712   6.068 -1.0277 -1.7939  1.5462
 1230WAT    EPW 5628   4.058   1.681   6.080 -0.3673  0.5607  0.0051
 1231WAT      O 5629   1.638   7.204   1.113  0.0859 -0.4851 -0.1811
 1231WAT     H1 5630   1.692   7.271   1.127  0.7079 -1.1119  0.4977
 1231WAT     H2 5631   1.663   7.173   1.035 -1.5995  1.3341 -1.5602
 1231WAT    EPW 5632   1.649   7.209   1.103  0.2596 -0.0385  0.2206
 1232WAT      O 5633   7.232   0.679   6.016  0.6223 -0.2096 -0.2769
 1232WAT     H1 5634   7.205   0.598   5.998  0.2419  0.1963 -1.6772
 1232WAT     H2 5635   7.267   0.706   5.941  1.0680  0.7977  0.2740
 1232WAT    EPW 5636   7.233   0.671   6.002 -0.3184  0.0857  0.0864
 1233WAT      O 5637   2.114   1.179   3.098 -0.0490 -0.6230  0.2187
 1233WAT     H1 5638   2.083   1.104   3.066  3.0922 -2.2910  0.6994
 1233WAT     H2 5639   2.131   1.161   3.182  0.3401  0.7858  0.4829
 1233WAT    EPW 5640   2.112   1.166   3.106  0.2530  0.4189  0.7879
 1234WAT      O 5641   4.904   5.377   7.299 -0.4720 -0.1917  0.4618
 1234WAT     H1 5642   4.982   5.360   7.335  0.2967  1.0453 -0.5006
 1234WAT     H2 5643   4.874   5.444   7.346  0.1579  0.8784 -0.5840
 1234WAT    EPW 5644   4.911   5.385   7.311  0.2072 -0.4197  0.1011
 1235WAT      O 5645   2.465   3.622   6.630 -0.1374 -0.1937  0.0476
 1235WAT     H1 5646   2.510   3.555   6.597  0.4766  0.9528 -1.5428
 1235WAT     H2 5647   2.406   3.583   6.682  0.6477 -1.9075 -0.2619
 1235WAT    EPW 5648   2.463   3.606   6.633 -0.2987 -0.2850  0.5531
 1236WAT      O 5649   7.131   3.993   6.998 -0.0954  0.3141  0.3391
 1236WAT     H1 5650   7.185   4.061   7.007 -0.8051  0.6582  2.8300
 1236WAT     H2 5651   7.095   4.006   6.920  2.9054  0.3761 -1.1887
 1236WAT    EPW 5652   7.133   4.005   6.988  0.4115  0.2472  0.3363
 1237WAT      O 5653   3.890   4.730   6.429  0.4441 -0.3769  0.4503
 1237WAT     H1 5654   3.824   4.753   6.480  1.2589  0.8028  1.0233
 1237WAT     H2 5655   3.916   4.805   6.394  0.7634 -0.9842 -0.6615
 1237WAT    EPW 5656   3.884   4.744   6.431  0.0569  0.3888 -0.0370
 1238WAT      O 5657   7.401   6.588   0.289 -0.2616  0.1285  0.0725
 1238WAT     H1 5658   7.427   6.611   0.369 -0.5900  0.6147  0.0404
 1238WAT     H2 5659   7.471   6.548   0.256 -0.0296  0.1663  0.5001
 1238WAT    EPW 5660   7.415   6.585   0.296 -0.1881 -0.6091  0.0208
 1239WAT      O 5661   1.077   1.353   4.300  0.1594 -0.2695 -0.2414
 1239WAT     H1 5662   1.066   1.267   4.290 -0.8827 -0.2102  0.2176
 1239WAT     H2 5663   1.033   1.387   4.233  0.5501 -0.0917 -0.4087
 1239WAT    EPW 5664   1.069   1.345   4.289 -0.8815  0.3707 -0.2857
 1240WAT      O 5665   3.503   1.825   4.041  0.2494  0.7436 -0.3601
 1240WAT     H1 5666   3.424   1.790   4.049  0.4410  0.0406 -1.3285
 1240WAT     H2 5667   3.505   1.851   3.957  1.2024  0.3353 -0.4755
 1240WAT    EPW 5668   3.492   1.824   4.030 -0.0515 -0.7760  0.5237
 1241WAT      O 5669   5.670   3.259   2.952 -0.0996  0.1934  0.2842
 1241WAT     H1 5670   5.664   3.178   2.984  0.9185 -0.5667 -1.2793
 1241WAT     H2 5671   5.661   3.310   3.022  1.6146 -1.3336  1.7175
 1241WAT    EPW 5672   5.668   3.255   2.967 -0.4458  0.0697  0.0941
 1242WAT      O 5673   0.184   2.418   4.746  0.3706  0.0618  0.2009
 1242WAT     H1 5674   0.137   2.486   4.718  0.9647  0.8047  0.9520
 1242WAT     H2 5675   0.162   2.353   4.691  2.4653  1.7375 -2.9161
 1242WAT    EPW 5676   0.174   2.418   4.734 -0.2948  0.4425  0.2938
 1243WAT      O 5677   1.391   7.002   2.528  0.7237 -0.2957 -0.9162
 1243WAT     H1 5678   1.394   6.916   2.516 -2.5992 -0.2397 -3.9373
 1243WAT     H2 5679   1.459   7.031   2.481  0.9388 -1.2235 -1.2069
 1243WAT    EPW 5680   1.401   6.994   2.519  0.2623  0.2409 -0.5815
 1244WAT      O 5681   2.495   1.618   1.278 -0.1800  0.4725  1.1908
 1244WAT     H1 5682   2.414   1.620   1.310 -0.2633  1.8262  0.9897
 1244WAT     H2 5683   2.543   1.587   1.344 -0.9435 -1.0706  1.0506
 1244WAT    EPW 5684   2.490   1.614   1.292  0.5266  0.5123 -1.3131
 1245WAT      O 5685   6.519   3.003   5.742  0.2855  0.5208  0.1480
 1245WAT     H1 5686   6.498   3.087   5.731 -0.0730  0.1618 -2.5884
 1245WAT     H2 5687   6.604   3.006   5.762  0.2406  1.5574  0.2182
 1245WAT    EPW 5688   6.529   3.016   5.743 -0.0473 -0.0475 -0.1323
 1246WAT      O 5689   2.814   6.044   1.839 -0.6079 -0.4313 -0.2276
 1246WAT     H1 5690   2.823   6.008   1.760 -0.4423 -0.5438 -0.1593
 1246WAT     H2 5691   2.805   6.129   1.822 -0.5810 -0.4565 -0.3679
 1246WAT    EPW 5692   2.814   6.051   1.825 -0.1082  0.4448 -0.2606
 1247WAT      O 5693   6.858   2.750   3.038  0.7440 -0.2589 -0.0468
 1247WAT     H1 5694   6.870   2.828   3.074  0.1151  0.1771 -0.7494
 1247WAT     H2 5695   6.926   2.703   3.067  1.0494  0.4972  0.4951
 1247WAT    EPW 5696   6.870   2.754   3.048  1.1080 -0.0703  0.4395
 1248WAT      O 5697   5.628   4.109   3.920 -0.3091 -0.2810  0.3163
 1248WAT     H1 5698   5.657   4.098   3.839 -1.5256 -1.1333 -0.0367
 1248WAT     H2 5699   5.562   4.165   3.912  1.9426  2.7673  1.3013
 1248WAT    EPW 5700   5.623   4.115   3.907  0.3441  0.3322  0.3912
 1249WAT      O 5701   2.394   3.376   0.315 -0.2157  0.4367 -0.1729
 1249WAT     H1 5702   2.359   3.432   0.257 -3.0804 -0.7116  0.2704
 1249WAT     H2 5703   2.335   3.375   0.380  0.4620 -1.9599  0.5084
 1249WAT    EPW 5704   2.380   3.384   0.316 -0.1928  0.5644  0.1723
 1250WAT      O 5705   5.126   1.668   3.857  0.3589 -0.2043  0.5468
 1250WAT     H1 5706   5.084   1.699   3.787  0.3618  0.3790  0.7988
 1250WAT     H2 5707   5.080   1.699   3.924  0.3787 -0.7303  0.8081
 1250WAT    EPW 5708   5.113   1.677   3.856  0.0203  0.1538 -0.1371
 1251WAT      O 5709   1.255   1.657   3.051  0.8066  0.4519 -0.5039
 1251WAT     H1 5710   1.235   1.731   3.010  0.9069  1.3977  1.0631
 1251WAT     H2 5711   1.177   1.622   3.069  0.7138  0.8937 -0.0266
 1251WAT    EPW 5712   1.240   1.663   3.048  0.3065 -0.6895  0.1017
 1252WAT      O 5713   3.035   5.098   3.487  1.1555  0.2940 -0.2272
 1252WAT     H1 5714   3.054   5.022   3.448  0.9939  0.5362 -0.7780
 1252WAT     H2 5715   3.015   5.074   3.568  0.3754 -0.3368 -0.5941
 1252WAT    EPW 5716   3.035   5.083   3.493 -0.0865  0.0900 -0.1999
 1253WAT      O 5717   5.094   3.302   6.346  0.1848 -0.3340 -0.2489
 1253WAT     H1 5718   5.165   3.253   6.333 -0.6094 -2.2221  1.8328
 1253WAT     H2 5719   5.031   3.243   6.361 -1.2651  1.3105  0.4323
 1253WAT    EPW 5720   5.095   3.286   6.346 -0.4663  0.3461 -0.1110
 1254WAT      O 5721   1.009   7.281   1.265  0.4432  0.4760 -0.0039
 1254WAT     H1 5722   0.923   7.290   1.277  0.1606 -2.1422  0.6613
 1254WAT     H2 5723   1.036   7.362   1.248 -2.2391  1.2911 -0.9042
 1254WAT    EPW 5724   1.001   7.294   1.264  0.0708 -0.2710 -0.2701
 1255WAT      O 5725   7.029   3.909   0.193 -1.0246  0.0346  0.0901
 1255WAT     H1 5726   7.099   3.862   0.218 -0.4677  0.5092 -0.5354
 1255WAT     H2 5727   7.006   3.952   0.266 -1.2643 -0.8498  0.5515
 1255WAT    EPW 5728   7.036   3.908   0.208 -0.1255  0.1572  0.1541
 1256WAT      O 5729   6.222   4.866   0.060 -0.2372 -0.1187 -0.3910
 1256WAT     H1 5730   6.243   4.943   0.025 -0.2065 -0.2174 -0.5878
 1256WAT     H2 5731   6.300   4.833   0.082 -0.1808 -0.4823 -1.1135
 1256WAT    EPW 5732   6.237   4.873   0.058 -0.2192 -0.4619  0.2459
 1257WAT      O 5733   0.182   2.296   2.952  0.0789  0.8453  0.5321
 1257WAT     H1 5734   0.250   2.244   2.965 -1.2205 -0.5261  2.2630
 1257WAT     H2 5735   0.203   2.340   2.879  1.4869 -1.6622 -0.6871
 1257WAT    EPW 5736   0.195   2.295   2.943  0.0462 -0.7325 -1.1934
 1258WAT      O 5737   5.769   4.403   0.962 -0.0483 -0.1695 -0.1907
 1258WAT     H1 5738   5.699   4.380   1.008 -0.3900 -0.3505 -0.7997
 1258WAT     H2 5739   5.742   4.401   0.879 -0.2627  2.9105 -0.2979
 1258WAT    EPW 5740   5.755   4.399   0.956 -0.1335 -0.1551  0.5645
 1259WAT      O 5741   5.563   4.301   1.140  0.0977 -0.3499  0.6509
 1259WAT     H1 5742   5.480   4.274   1.135  0.7029 -2.4453  0.7653
 1259WAT     H2 5743   5.564   4.349   1.213 -1.1564  0.3389  0.2433
 1259WAT    EPW 5744   5.551   4.304   1.150 -0.0695  0.3519  0.0298
 1260WAT      O 5745   5.809   5.915   5.945 -0.2862 -0.3483 -0.3788
 1260WAT     H1 5746   5.820   5.966   5.876 -2.2250 -0.7804 -1.0643
 1260WAT     H2 5747   5.752   5.855   5.918 -0.0399 -1.3559  1.1819
 1260WAT    EPW 5748   5.802   5.914   5.931 -0.2830  0.4949 -0.2754
 1261WAT      O 5749   3.190   7.076   1.663 -0.0817 -0.2608 -0.0821
 1261WAT     H1 5750   3.233   7.079   1.739 -0.5286  1.0853  0.1508
 1261WAT     H2 5751   3.194   7.159   1.634  0.1117 -0.7466 -1.5502
 1261WAT    EPW 5752   3.197   7.089   1.670 -0.0267  0.2879  0.5404
 1262WAT      O 5753   5.950   6.478   4.353 -0.1236 -0.3018  0.1935
 1262WAT     H1 5754   5.882   6.533   4.358  0.0006  0.2183 -2.3945
 1262WAT     H2 5755   6.015   6.529   4.324  1.0228 -1.1003  1.2500
 1262WAT    EPW 5756   5.950   6.494   4.350  0.7509 -0.6346  0.5174
 1263WAT      O 5757   3.336   7.170   7.487  0.0239  0.2147  0.0867
 1263WAT     H1 5758   3.261   7.207   7.462 -0.5074 -0.5052  0.5457
 1263WAT     H2 5759   3.389   7.182   7.419 -0.2509  1.4474  0.0775
 1263WAT    EPW 5760   3.332   7.177   7.473 -0.4202  0.3890 -0.1482
 1264WAT      O 5761   6.777   2.954   1.318 -0.4106 -0.4528 -0.1970
 1264WAT     H1 5762   6.784   2.975   1.234  1.0973 -0.1384 -0.0194
 1264WAT     H2 5763   6.795   3.028   1.360  1.0186 -1.0918  0.3972
 1264WAT    EPW 5764   6.781   2.968   1.312 -0.2707  0.1391  0.3449
 1265WAT      O 5765   5.407   2.334   6.859  0.4837 -0.6667 -0.4481
 1265WAT     H1 5766   5.434   2.416   6.869  0.1842 -0.8271  2.9058
 1265WAT     H2 5767   5.335   2.342   6.810  0.5470  1.0300 -0.3290
 1265WAT    EPW 5768   5.400   2.347   6.853  0.0536  0.1189 -0.1276
 1266WAT      O 5769   1.831   2.460   5.718 -0.0151 -0.2048  0.0196
 1266WAT     H1 5770   1.914   2.485   5.716 -0.3092  0.7708 -0.6807
 1266WAT     H2 5771   1.801   2.482   5.639 -1.0501 -0.1699  0.4074
 1266WAT    EPW 5772   1.839   2.467   5.706 -0.0744  0.9111 -0.5363
 1267WAT      O 5773   5.117   2.620   7.178  0.1677 -0.1352 -0.2267
 1267WAT     H1 5774   5.201   2.640   7.192  0.1979 -0.0797 -0.4900
 1267WAT     H2 5775   5.074   2.674   7.231  0.2087  1.2120 -1.5009
 1267WAT    EPW 5776   5.123   2.631   7.188  0.0877  0.2718  0.2398
 1268WAT      O 5777   5.676   1.610   1.198 -0.4539 -0.5192 -0.3442
 1268WAT     H1 5778   5.614   1.552   1.176 -2.8803  1.1847  1.4299
 1268WAT     H2 5779   5.676   1.666   1.131 -1.8750  0.1865  0.2045
 1268WAT    EPW 5780   5.667   1.610   1.185 -0.4011  0.1146 -0.1221
 1269WAT      O 5781   1.725   7.356   0.815 -0.0438  0.4789  0.2546
 1269WAT     H1 5782   1.783   7.398   0.866  0.5395 -2.0654  1.8501
 1269WAT     H2 5783   1.748   7.272   0.823 -0.7434 -0.1912 -3.2764
 1269WAT    EPW 5784   1.737   7.350   0.824 -0.8447  0.2812 -0.1019
 1270WAT      O 5785   7.588   1.002   1.464  0.3205  0.3736 -0.3480
 1270WAT     H1 5786   7.636   1.031   1.531  0.5377  2.2768 -1.2618
 1270WAT     H2 5787   7.640   1.015   1.395  0.1773 -1.7178 -0.9282
 1270WAT    EPW 5788   7.603   1.008   1.464  0.5618 -0.1752  0.5127
 1271WAT      O 5789   5.839   2.044   3.431 -0.5295  0.2170  0.3066
 1271WAT     H1 5790   5.826   1.993   3.361  1.9265  0.0887 -0.1499
 1271WAT     H2 5791   5.802   1.999   3.496  1.4999 -2.2453 -0.0907
 1271WAT    EPW 5792   5.832   2.030   3.431 -0.0230  0.2204 -0.0442
 1272WAT      O 5793   7.326   2.690   6.246  0.4409 -0.0924 -0.0496
 1272WAT     H1 5794   7.275   2.629   6.210  0.3369 -0.0597  0.0425
 1272WAT     H2 5795   7.342   2.744   6.179  0.6719 -0.3101 -0.1715
 1272WAT    EPW 5796   7.321   2.689   6.231  0.2958  0.3118 -0.1550
 1273WAT      O 5797   1.964   3.049   2.675 -0.1306 -0.8088  0.2055
 1273WAT     H1 5798   1.984   3.134   2.668  0.1940 -0.9817 -1.2731
 1273WAT     H2 5799   1.897   3.040   2.619  1.4403 -1.9993 -1.5895
 1273WAT    EPW 5800   1.957   3.060   2.666 -0.0490  0.2704  0.2918
 1274WAT      O 5801   4.050   1.569   3.746 -0.7910 -0.2039 -0.0687
 1274WAT     H1 5802   4.121   1.552   3.699 -0.0681 -1.5695  1.4397
 1274WAT     H2 5803   4.081   1.611   3.816 -1.3861 -1.2607  0.8470
 1274WAT    EPW 5804   4.065   1.573   3.749 -0.2620 -0.7190 -0.0419
 1275WAT      O 5805   6.041   2.426   5.600 -0.4167  0.0656  0.3576
 1275WAT     H1 5806   6.058   2.379   5.528  0.6953  0.8136  0.1196
 1275WAT     H2 5807   6.099   2.490   5.597  0.2488 -0.3834  2.4072
 1275WAT    EPW 5808   6.052   2.428   5.589  0.0390 -0.3126 -0.1155
 1276WAT      O 5809   6.915   0.897   7.483 -0.2170  0.0964  0.3239
 1276WAT     H1 5810   6.884   0.914   7.403  1.2133  1.6608  0.0537
 1276WAT     H2 5811   6.902   0.971   7.526  1.2623  0.1108  0.7902
 1276WAT    EPW 5812   6.909   0.910   7.477 -0.1354 -0.0547 -0.4655
 1277WAT      O 5813   0.598   7.328   5.518 -0.1769  0.1705  0.1425
 1277WAT     H1 5814   0.651   7.398   5.517 -1.2960  1.1254  1.8885
 1277WAT     H2 5815   0.645   7.268   5.560 -0.0659  0.6652  0.7444
 1277WAT    EPW 5816   0.613   7.330   5.524 -0.3134  0.4600 -0.2242
 1278WAT      O 5817   6.233   2.706   1.981  0.0006 -0.0113 -0.2757
 1278WAT     H1 5818   6.187   2.706   1.907 -1.8746  1.3471  0.7915
 1278WAT     H2 5819   6.252   2.791   1.992  1.3989 -0.3610  0.1494
 1278WAT    EPW 5820   6.229   2.719   1.972  0.0689 -0.5117 -0.0329
 1279WAT      O 5821   4.183   5.746   2.617 -0.4559  0.0588  0.0983
 1279WAT     H1 5822   4.123   5.715   2.562 -1.7468 -0.2690  1.6132
 1279WAT     H2 5823   4.136   5.767   2.688  1.4149 -1.8025  2.0062
 1279WAT    EPW 5824   4.167   5.744   2.619  0.0429 -0.3153 -0.4481
 1280WAT      O 5825   0.692   1.871   3.216 -0.1116  0.3063  0.1166
 1280WAT     H1 5826   0.738   1.943   3.234  1.0298 -0.4598  0.4309
 1280WAT     H2 5827   0.618   1.882   3.261 -0.9427  2.2461 -1.5895
 1280WAT    EPW 5828   0.688   1.883   3.226  0.4777 -0.1057  0.2888
 1281WAT      O 5829   5.186   7.256   2.040  0.2178  0.0478 -0.1544
 1281WAT     H1 5830   5.165   7.268   2.124  2.4647 -0.2228  0.5035
 1281WAT     H2 5831   5.213   7.173   2.037 -0.1710 -0.0599 -1.2395
 1281WAT    EPW 5832   5.187   7.245   2.052  0.3583 -0.0604 -0.0423
 1282WAT      O 5833   6.869   5.051   7.568 -0.2847  0.6699  0.2329
 1282WAT     H1 5834   6.870   5.099   7.640  1.5936  2.5266 -0.9129
 1282WAT     H2 5835   6.893   4.972   7.596 -0.0769  1.2171  1.6863
 1282WAT    EPW 5836   6.873   5.046   7.582 -0.2171  0.2794  0.2116
 1283WAT      O 5837   2.547   0.714   2.008  0.0155  0.5574  0.6596
 1283WAT     H1 5838   2.524   0.719   2.092 -0.4059  1.7460  0.4865
 1283WAT     H2 5839   2.479   0.673   1.971  0.3209 -0.2158  0.9205
 1283WAT    EPW 5840   2.534   0.708   2.015  0.5724 -0.6447 -0.1317
 1284WAT      O 5841   1.219   3.877   5.653 -0.2743 -0.5589 -0.2470
 1284WAT     H1 5842   1.282   3.836   5.608  0.3521 -1.3210  1.2447
 1284WAT     H2 5843   1.199   3.945   5.602 -0.6056 -2.1078 -2.3226
 1284WAT    EPW 5844   1.226   3.881   5.638 -0.2155  0.3922 -0.2429
 1285WAT      O 5845   7.555  -0.007   4.569  0.8273  0.2778  0.4619
 1285WAT     H1 5846   7.636  -0.035   4.554  0.2583 -0.2488 -2.0545
 1285WAT     H2 5847   7.564   0.049   4.636  2.9577 -1.0599  1.3877
 1285WAT    EPW 5848   7.568  -0.003   4.577 -0.4505  0.5642 -0.1882
 1286WAT      O 5849   0.788   5.502   1.625 -0.0811  0.2837  0.2977
 1286WAT     H1 5850   0.714   5.511   1.580  0.7802  2.5053 -0.8225
 1286WAT     H2 5851   0.850   5.510   1.565  1.1030 -0.2534  1.3973
 1286WAT    EPW 5852   0.786   5.505   1.609 -0.6496  0.4265 -0.2919
 1287WAT      O 5853   3.542   0.249   2.067  0.3733  0.4068 -0.0184
 1287WAT     H1 5854   3.569   0.169   2.044 -2.4444 -0.7972  0.4331
 1287WAT     H2 5855   3.599   0.274   2.127  3.3101  0.2751 -2.5292
 1287WAT    EPW 5856   3.554   0.241   2.072 -0.8736 -0.4613  0.7424
 1288WAT      O 5857   0.992   1.626   0.559 -0.7801  0.3677  0.0639
 1288WAT     H1 5858   0.992   1.546   0.524 -0.4555 -0.6830  2.2867
 1288WAT     H2 5859   0.931   1.621   0.622  0.3867  1.3026  1.3288
 1288WAT    EPW 5860   0.983   1.613   0.563  0.0055 -0.3292  0.1845
 1289WAT      O 5861   2.894   3.561   6.990  0.2611  0.1428  0.4181
 1289WAT     H1 5862   2.960   3.510   7.017 -0.7807 -0.2123  2.4912
 1289WAT     H2 5863   2.851   3.510   6.934  0.5331 -0.4062  0.6985
 1289WAT    EPW 5864   2.898   3.546   6.986  0.2692  0.2186  0.4917
 1290WAT      O 5865   1.074   6.549   5.980 -0.1864  0.0603 -0.2259
 1290WAT     H1 5866   1.143   6.513   6.019 -0.3928 -0.4707 -0.3514
 1290WAT     H2 5867   1.044   6.606   6.040 -1.0580 -1.3972  0.7771
 1290WAT    EPW 5868   1.080   6.552   5.995 -0.2329 -0.2163 -0.1650
 1291WAT      O 5869   4.790   6.394   3.330  0.4394 -0.3641 -0.0840
 1291WAT     H1 5870   4.754   6.328   3.287  0.4474 -0.3023 -0.1870
 1291WAT     H2 5871   4.788   6.460   3.273 -0.0922 -0.1141  0.2159
 1291WAT    EPW 5872   4.785   6.394   3.315  0.2710 -0.0528  0.0395
 1292WAT      O 5873   7.417   2.459   6.930 -0.0799 -0.4639 -0.0443
 1292WAT     H1 5874   7.330   2.447   6.925 -0.1944  0.3153 -0.0144
 1292WAT     H2 5875   7.424   2.541   6.959  0.6544 -0.8947  1.0425
 1292WAT    EPW 5876   7.405   2.469   6.934  0.3219 -0.6576 -0.6117
 1293WAT      O 5877   6.824   3.042   0.490 -0.3340  0.2241  0.0776
 1293WAT     H1 5878   6.890   3.000   0.450 -0.9030  1.4568 -2.3644
 1293WAT     H2 5879   6.809   3.110   0.438 -2.1411  1.1883  1.7299
 1293WAT    EPW 5880   6.832   3.046   0.476  0.2800  0.1537  0.5810
 1294WAT      O 5881   2.830   0.614   6.100 -0.2646 -0.3900  0.6711
 1294WAT     H1 5882   2.762   0.667   6.114 -0.6910 -0.5284 -0.7027
 1294WAT     H2 5883   2.871   0.612   6.177 -0.0786  2.1404  0.7255
 1294WAT    EPW 5884   2.826   0.622   6.114 -0.6730  0.7881 -0.0384
 1295WAT      O 5885   1.006   6.080   0.239 -0.8596  0.4372  0.1671
 1295WAT     H1 5886   1.066   6.119   0.288 -2.6889  0.1229  2.8753
 1295WAT     H2 5887   0.990   6.005   0.280 -1.1101 -0.8485 -2.0709
 1295WAT    EPW 5888   1.012   6.075   0.252 -0.9687 -0.0578  0.5309
 1296WAT      O 5889   2.769   0.107   1.468 -0.1617  0.3755  0.2515
 1296WAT     H1 5890   2.763   0.166   1.532 -0.1790 -0.2551  0.8342
 1296WAT     H2 5891   2.686   0.093   1.445 -0.1549  0.6031  0.0726
 1296WAT    EPW 5892   2.756   0.114   1.474  0.0840  0.1210  0.1636
 1297WAT      O 5893   6.281   2.342   4.471 -0.3801 -0.5882  0.2273
 1297WAT     H1 5894   6.240   2.364   4.545 -0.3363  0.2358  0.0234
 1297WAT     H2 5895   6.363   2.325   4.497 -0.1095  0.6660  0.2551
 1297WAT    EPW 5896   6.287   2.343   4.486 -0.3265  0.2593  0.7658
 1298WAT      O 5897   2.484   2.935   2.759 -0.3626 -0.7890  0.2188
 1298WAT     H1 5898   2.532   2.992   2.804 -2.0202  1.2259 -0.4262
 1298WAT     H2 5899   2.507   2.858   2.792  2.0686  0.2174  1.0384
 1298WAT    EPW 5900   2.494   2.932   2.771  0.4218 -0.3032 -0.4213
 1299WAT      O 5901   6.863   2.627   3.766  0.0655 -0.3043  0.1958
 1299WAT     H1 5902   6.822   2.551   3.778  1.5825 -1.1495  0.2625
 1299WAT     H2 5903   6.922   2.628   3.829  1.3944 -0.0295 -1.0035
 1299WAT    EPW 5904   6.865   2.616   3.777 -0.9247  0.0696  0.3407
 1300WAT      O 5905   0.329   4.736   4.495  0.7393  0.6456  0.5418
 1300WAT     H1 5906   0.295   4.787   4.557 -0.0327  1.6200 -0.6435
 1300WAT     H2 5907   0.406   4.773   4.477  1.3512 -0.1166  1.4559
 1300WAT    EPW 5908   0.335   4.749   4.502 -0.2999 -0.0610  0.2418
 1301WAT      O 5909   2.780   3.850   3.823  0.2517 -0.0890  0.0066
 1301WAT     H1 5910   2.835   3.806   3.772 -0.4262  0.0757 -0.8935
 1301WAT     H2 5911   2.772   3.800   3.894  2.4191  0.4205  0.6777
 1301WAT    EPW 5912   2.787   3.836   3.826  0.4903  0.2519  0.1788
 1302WAT      O 5913   3.216   6.984   0.289  0.6324 -0.0152 -0.4880
 1302WAT     H1 5914   3.269   7.041   0.249  0.3512  0.0863 -0.7216
 1302WAT     H2 5915   3.271   6.928   0.328  0.9281 -0.6531 -1.7633
 1302WAT    EPW 5916   3.232   6.984   0.289 -0.2920  0.0107 -0.1010
 1303WAT      O 5917   6.226   4.253   0.391  0.5201 -0.0219  0.0831
 1303WAT     H1 5918   6.172   4.314   0.422 -0.1861 -0.4284 -0.3284
 1303WAT     H2 5919   6.185   4.178   0.409  0.4835 -0.2962 -1.1021
 1303WAT    EPW 5920   6.212   4.251   0.398  0.3562 -0.2211  0.6485
 1304WAT      O 5921   4.228   2.463   1.717  0.1622  0.0721  0.4221
 1304WAT     H1 5922   4.207   2.447   1.800  0.5286 -1.3540  0.2595
 1304WAT     H2 5923   4.164   2.425   1.672 -0.8978  2.1577  0.0184
 1304WAT    EPW 5924   4.216   2.455   1.723 -0.3224 -0.0401  0.0823
 1305WAT      O 5925   4.796   5.266   4.527 -0.0446  0.3212 -0.2802
 1305WAT     H1 5926   4.866   5.264   4.579 -0.0949 -1.6793 -0.1994
 1305WAT     H2 5927   4.758   5.189   4.542 -0.8156  0.2623 -2.2689
 1305WAT    EPW 5928   4.801   5.254   4.537 -0.5429  0.6211  0.0018
 1306WAT      O 5929   2.458   3.743   6.992 -0.0411  0.6568 -0.2250
 1306WAT     H1 5930   2.414   3.707   7.058 -0.4599  1.1479 -0.2245
 1306WAT     H2 5931   2.415   3.818   6.977  0.8130  1.1672 -0.2053
 1306WAT    EPW 5932   2.445   3.749   6.999  0.0383  0.1634 -0.0651
 1307WAT      O 5933   3.370   4.152   5.488  0.1316  0.5516  0.0188
 1307WAT     H1 5934   3.359   4.142   5.574 -1.9377  0.0828 -0.2578
 1307WAT     H2 5935   3.423   4.222   5.482  0.5854  0.3817  1.6537
 1307WAT    EPW 5936   3.377   4.161   5.500  0.1887  0.3165  0.1032
 1308WAT      O 5937   6.578   4.682   2.453  0.0574  0.7623  0.7238
 1308WAT     H1 5938   6.609   4.763   2.452 -0.4099  0.9838  2.0571
 1308WAT     H2 5939   6.603   4.652   2.531  0.2829 -0.3989  0.2191
 1308WAT    EPW 5940   6.586   4.689   2.464 -0.0713  0.5448  0.0694
 1309WAT      O 5941   3.772   6.345   2.516 -0.7525  0.3007 -0.2080
 1309WAT     H1 5942   3.739   6.420   2.543 -1.3351 -0.6944  2.1152
 1309WAT     H2 5943   3.703   6.293   2.508 -0.4364  0.1204 -2.4020
 1309WAT    EPW 5944   3.757   6.348   2.519  0.4510 -0.0024 -0.3145
 1310WAT      O 5945   3.064   0.745   6.755 -0.1236 -0.0740 -0.5866
 1310WAT     H1 5946   3.049   0.822   6.793 -0.6743  0.1657 -1.2656
 1310WAT     H2 5947   3.017   0.689   6.802 -0.4970  0.1593 -0.6789
 1310WAT    EPW 5948   3.055   0.749   6.768 -0.0963  0.3062  0.5286
 1311WAT      O 5949   5.354   0.469   6.882 -0.3701  0.2731 -0.2175
 1311WAT     H1 5950   5.372   0.470   6.967  1.0522 -0.5878 -0.4763
 1311WAT     H2 5951   5.368   0.551   6.857 -0.8914  0.5545  0.3829
 1311WAT    EPW 5952   5.359   0.481   6.891 -0.6466  0.2937 -0.4166
 1312WAT      O 5953   0.134   2.084   6.119  0.1006 -0.2250 -0.1725
 1312WAT     H1 5954   0.151   2.150   6.174 -1.2269 -0.6559  0.7905
 1312WAT     H2 5955   0.139   2.122   6.041  0.5263  0.7542  0.3060
 1312WAT    EPW 5956   0.137   2.100   6.116 -1.0067 -0.4951 -0.6800
 1313WAT      O 5957   4.595   3.746   1.565  0.1111 -0.7588 -0.1005
 1313WAT     H1 5958   4.654   3.788   1.516  0.0337  0.0460  0.4870
 1313WAT     H2 5959   4.582   3.672   1.521 -1.3416  0.6987 -2.3232
 1313WAT    EPW 5960   4.602   3.741   1.551 -0.1968  0.6928 -0.3534
 1314WAT      O 5961   4.120   5.827   5.588 -0.3901 -0.2293 -0.5122
 1314WAT     H1 5962   4.139   5.821   5.503 -0.6055  0.6912 -0.6395
 1314WAT     H2 5963   4.066   5.896   5.592  0.1376  0.1520  0.4363
 1314WAT    EPW 5964   4.115   5.837   5.576  0.2955 -0.0501  0.4665
 1315WAT      O 5965   1.767   1.296   2.800 -0.0188 -0.3268  0.3344
 1315WAT     H1 5966   1.689   1.335   2.805 -1.2982 -2.8476  2.8267
 1315WAT     H2 5967   1.771   1.269   2.717 -1.5146  0.3609  0.0007
 1315WAT    EPW 5968   1.756   1.298   2.788  0.0622 -0.2606  0.1702
 1316WAT      O 5969   6.946   6.261   5.669  0.0239 -0.2376 -0.1627
 1316WAT     H1 5970   6.971   6.342   5.648  0.6370 -0.8403 -1.9754
 1316WAT     H2 5971   6.945   6.220   5.592 -1.6984 -1.5790  0.5156
 1316WAT    EPW 5972   6.949   6.267   5.654 -0.4308 -0.0990  0.0042
 1317WAT      O 5973   2.051   3.213   0.053 -0.1381 -0.7785  0.5576
 1317WAT     H1 5974   2.048   3.253   0.131 -0.7066  1.3830 -0.5102
 1317WAT     H2 5975   1.967   3.210   0.029  0.0095 -1.6941  0.1329
 1317WAT    EPW 5976   2.038   3.218   0.061  0.1918 -1.0173 -0.9545
 1318WAT      O 5977   1.966   1.823   7.328 -0.4477 -0.2660  0.2829
 1318WAT     H1 5978   1.955   1.759   7.269 -3.1390  1.1255 -0.9444
 1318WAT     H2 5979   1.910   1.884   7.301  2.6953  3.1362  0.7703
 1318WAT    EPW 5980   1.956   1.822   7.315 -0.3158  0.3827  0.2197
 1319WAT      O 5981   1.962   1.708   7.055 -0.5355  0.0627 -0.4871
 1319WAT     H1 5982   2.038   1.677   7.085 -1.1874 -0.7420  0.4004
 1319WAT     H2 5983   1.903   1.654   7.090 -1.5033  0.5368 -1.3460
 1319WAT    EPW 5984   1.965   1.695   7.065 -0.0009  0.0210 -0.3798
 1320WAT      O 5985   1.803   0.428   5.352  0.5033 -0.0073  0.1835
 1320WAT     H1 5986   1.840   0.387   5.420  3.1338 -0.0140 -1.1287
 1320WAT     H2 5987   1.852   0.404   5.284 -0.0296  2.4896 -1.2133
 1320WAT    EPW 5988   1.816   0.418   5.352 -0.2864 -0.2761 -0.2220
 1321WAT      O 5989   1.664   7.577   6.447 -0.1089  0.4117  0.5681
 1321WAT     H1 5990   1.639   7.512   6.499  1.5401  0.2242  1.1570
 1321WAT     H2 5991   1.716   7.538   6.389 -0.2176  0.9938  0.0649
 1321WAT    EPW 5992   1.668   7.561   6.446  0.0195  0.3643 -0.3105
 1322WAT      O 5993   6.575   4.318   5.586 -0.2828  0.3605  0.2058
 1322WAT     H1 5994   6.603   4.400   5.594  0.2281  0.3046 -0.8526
 1322WAT     H2 5995   6.620   4.275   5.647  1.0222  0.5012 -0.6198
 1322WAT    EPW 5996   6.585   4.324   5.597 -0.1003  0.0915  0.5654
 1323WAT      O 5997   6.883   0.477   0.488 -0.0529  0.5811 -0.7404
 1323WAT     H1 5998   6.937   0.527   0.535  2.0602 -1.2322 -1.0387
 1323WAT     H2 5999   6.879   0.403   0.535  0.5440 -0.5564 -2.4016
 1323WAT    EPW 6000   6.890   0.473   0.502  0.0621 -0.5389  0.1536
 1324WAT      O 6001   0.725   2.176   1.433 -0.3852  0.4150 -0.0971
 1324WAT     H1 6002   0.764   2.240   1.389 -2.3858  2.2400  0.6183
 1324WAT     H2 6003   0.682   2.218   1.497 -0.3475 -1.8216  1.5148
 1324WAT    EPW 6004   0.724   2.192   1.436  0.2566 -0.2893  0.1681
 1325WAT      O 6005   6.573   3.324   1.095 -0.3163 -0.2171  0.6765
 1325WAT     H1 6006   6.630   3.331   1.160 -0.5332  0.3654  0.8153
 1325WAT     H2 6007   6.507   3.280   1.130  0.4972 -1.9014  0.1913
 1325WAT    EPW 6008   6.571   3.319   1.110  0.2414 -0.5162  0.4227
 1326WAT      O 6009   4.461   3.143   6.905 -1.0966  0.0794  0.2047
 1326WAT     H1 6010   4.537   3.129   6.867 -1.3159 -0.0006 -0.2061
 1326WAT     H2 6011   4.452   3.077   6.961 -1.2565 -0.3793 -0.3592
 1326WAT    EPW 6012   4.471   3.131   6.908 -0.5728  0.2713 -0.0304
 1327WAT      O 6013   6.963   5.819   2.714 -0.2433 -0.0282 -0.1955
 1327WAT     H1 6014   7.003   5.760   2.763 -1.3414  1.3358  2.5126
 1327WAT     H2 6015   6.921   5.770   2.654  1.7112 -1.6961 -0.3266
 1327WAT    EPW 6016   6.962   5.803   2.712 -0.5863  0.1375  0.2780
 1328WAT      O 6017   1.973   4.731   7.005  0.5354  0.4797 -0.7525
 1328WAT     H1 6018   2.038   4.711   6.950  2.2485  0.0109  1.3086
 1328WAT     H2 6019   1.985   4.675   7.072 -2.7876 -0.4924 -0.8148
 1328WAT    EPW 6020   1.984   4.720   7.007  0.3734  0.1673  0.1317
 1329WAT      O 6021   4.420   3.899   4.734 -0.2105 -0.6149  0.1258
 1329WAT     H1 6022   4.413   3.864   4.655 -2.0987 -0.5205  0.2175
 1329WAT     H2 6023   4.338   3.918   4.756  0.4244  0.7649  1.4841
 1329WAT    EPW 6024   4.407   3.897   4.726 -0.2048 -0.7067  0.4222
 1330WAT      O 6025   4.048   3.758   6.164  0.5109  0.9340  0.5965
 1330WAT     H1 6026   4.060   3.821   6.104  0.0980  1.4208  1.0160
 1330WAT     H2 6027   4.003   3.799   6.227  1.2926  0.5426  1.4206
 1330WAT    EPW 6028   4.043   3.774   6.165 -0.2677  0.2564  0.1296
 1331WAT      O 6029   7.353   7.373   3.071  0.5278 -0.4293 -0.7404
 1331WAT     H1 6030   7.275   7.349   3.040 -0.4844  0.1896  1.2051
 1331WAT     H2 6031   7.365   7.452   3.036  0.6572 -0.8346 -1.6422
 1331WAT    EPW 6032   7.343   7.382   3.061  0.0521  0.3378  0.4297
 1332WAT      O 6033   4.056   0.158   1.826  0.0386  0.9804 -0.6106
 1332WAT     H1 6034   4.114   0.205   1.782  1.0955 -0.3675 -0.7454
 1332WAT     H2 6035   3.986   0.157   1.775  0.4387  1.3742 -1.1734
 1332WAT    EPW 6036   4.054   0.165   1.812 -0.0852  0.1840  0.3024
 1333WAT      O 6037   0.202   0.068   1.485 -0.4134 -0.0951 -0.6557
 1333WAT     H1 6038   0.178   0.025   1.413 -2.3938  0.9220 -0.6671
 1333WAT     H2 6039   0.157   0.028   1.548  0.8613 -0.6038 -0.0357
 1333WAT    EPW 6040   0.192   0.056   1.484  0.1921  0.1264  0.0715
 1334WAT      O 6041   0.864   2.317   4.400 -0.3541 -0.1956 -0.5347
 1334WAT     H1 6042   0.949   2.310   4.421 -0.5237 -2.5366 -0.4097
 1334WAT     H2 6043   0.854   2.403   4.385  1.4917  0.5172  1.6969
 1334WAT    EPW 6044   0.875   2.329   4.401 -0.0122 -0.0874 -0.2466
 1335WAT      O 6045   4.517   2.103   5.474  0.2049 -0.1448  0.1881
 1335WAT     H1 6046   4.601   2.127   5.477  0.5709 -1.3840  1.9505
 1335WAT     H2 6047   4.520   2.024   5.436  0.2228 -1.2466  2.2982
 1335WAT    EPW 6048   4.530   2.095   5.469 -0.3913 -0.7312  0.6709
 1336WAT      O 6049   2.726   0.989   3.830 -0.8321  0.0755  0.6241
 1336WAT     H1 6050   2.660   1.046   3.823 -0.8710 -0.1588 -1.5633
 1336WAT     H2 6051   2.688   0.912   3.812 -0.2285 -0.2655  0.7794
 1336WAT    EPW 6052   2.710   0.986   3.826 -0.3069 -0.0420 -0.3320
 1337WAT      O 6053   3.929   7.089   1.607  0.1370 -0.8285  0.9291
 1337WAT     H1 6054   3.850   7.102   1.572  0.3015 -0.7832  0.5773
 1337WAT     H2 6055   3.962   7.023   1.560 -0.2528 -1.8144  1.9850
 1337WAT    EPW 6056   3.922   7.081   1.595 -0.4407  0.5820  0.3783
 1338WAT      O 6057   6.134   6.092   1.250 -0.1291  0.0615  0.2520
 1338WAT     H1 6058   6.097   6.096   1.172 -0.5886  2.5124  0.4989
 1338WAT     H2 6059   6.069   6.068   1.303 -0.4511  0.7873  0.1933
 1338WAT    EPW 6060   6.119   6.089   1.247  0.0422  0.2247  0.6633
 1339WAT      O 6061   5.643   0.272   6.390 -0.0971 -0.2349  0.1837
 1339WAT     H1 6062   5.671   0.351   6.414 -1.8641 -0.0526  1.8947
 1339WAT     H2 6063   5.614   0.285   6.309 -1.0185  1.0879  0.6880
 1339WAT    EPW 6064   5.643   0.286   6.382 -0.2403  0.6922  0.1657
 1340WAT      O 6065   5.223   1.334   2.038  0.3640 -0.4103  0.3145
 1340WAT     H1 6066   5.249   1.371   1.963  1.5614 -2.1071 -0.1786
 1340WAT     H2 6067   5.191   1.257   2.013 -0.8338 -0.3071  1.4169
 1340WAT    EPW 6068   5.222   1.328   2.023 -0.4716  0.3214  0.2764
 1341WAT      O 6069   1.255   4.174   2.756  0.1100 -0.4665 -0.3488
 1341WAT     H1 6070   1.292   4.222   2.694  1.5121 -2.1289 -0.8757
 1341WAT     H2 6071   1.193   4.129   2.714 -1.4014  1.0023  0.1969
 1341WAT    EPW 6072   1.251   4.174   2.741  0.3507 -0.1484  0.5670
 1342WAT      O 6073   3.949   2.893   7.097 -0.3933  0.2597 -0.1738
 1342WAT     H1 6074   3.933   2.808   7.081  0.7039 -0.1239  0.6355
 1342WAT     H2 6075   4.003   2.891   7.165 -1.6174  1.6925  0.9016
 1342WAT    EPW 6076   3.955   2.880   7.105  0.1486  0.1389 -0.2042
 1343WAT      O 6077   1.011   6.509   0.782 -0.0100  0.4062  0.2672
 1343WAT     H1 6078   0.979   6.581   0.744  1.5110  1.0192  0.0518
 1343WAT     H2 6079   1.080   6.539   0.827 -0.1335 -0.7339  1.2610
 1343WAT    EPW 6080   1.017   6.524   0.783 -0.2205  0.0592 -0.0657
 1344WAT      O 6081   6.777   7.306   4.524 -0.2090 -0.1119  0.9395
 1344WAT     H1 6082   6.732   7.356   4.580  1.0054  2.6371 -0.3395
 1344WAT     H2 6083   6.860   7.319   4.548  0.3820  1.4514 -1.6232
 1344WAT    EPW 6084   6.783   7.315   4.536 -0.0385  0.3080 -0.4026
 1345WAT      O 6085   3.979   4.366   4.884 -0.8223 -0.3579 -0.0647
 1345WAT     H1 6086   3.951   4.414   4.952 -0.4301  0.2750 -0.3390
 1345WAT     H2 6087   3.923   4.300   4.881 -1.0927 -0.1687  0.6230
 1345WAT    EPW 6088   3.967   4.363   4.894 -0.0580  0.0368  0.0584
 1346WAT      O 6089   6.953   5.965   5.544  0.5591 -0.4358  0.0057
 1346WAT     H1 6090   7.008   5.929   5.487  1.3888 -1.5017  1.4028
 1346WAT     H2 6091   6.883   5.914   5.540  0.0387  0.3256 -1.0434
 1346WAT    EPW 6092   6.951   5.952   5.535 -0.2146  0.0898  0.2560
 1347WAT      O 6093   1.321   7.345   4.571 -0.2179  0.4375  0.2713
 1347WAT     H1 6094   1.379   7.333   4.507 -0.9799  2.0101 -0.7714
 1347WAT     H2 6095   1.262   7.282   4.557  0.4542 -0.2339  0.4298
 1347WAT    EPW 6096   1.321   7.334   4.560 -0.5630 -0.0844 -0.0847
 1348WAT      O 6097   3.247   3.371   7.504  0.0494 -0.3908 -0.3497
 1348WAT     H1 6098   3.267   3.394   7.586 -1.2264  2.6183 -0.7473
 1348WAT     H2 6099   3.220   3.289   7.512 -1.0983  0.1399  2.4643
 1348WAT    EPW 6100   3.246   3.362   7.518  0.0369  0.5031 -0.2069
 1349WAT      O 6101   6.525   5.810   5.679  0.1303  0.0362 -0.0542
 1349WAT     H1 6102   6.530   5.791   5.764 -0.6385  0.5243  0.1078
 1349WAT     H2 6103   6.517   5.897   5.678 -1.9445 -0.1058 -0.4984
 1349WAT    EPW 6104   6.525   5.820   5.692 -0.3233 -0.0156 -0.3201
 1350WAT      O 6105   1.354   1.140   4.365  0.4150  0.1173  0.1884
 1350WAT     H1 6106   1.404   1.084   4.322 -0.0213 -0.2824  0.1987
 1350WAT     H2 6107   1.402   1.161   4.435  0.4418 -0.4983  0.3548
 1350WAT    EPW 6108   1.368   1.135   4.369  0.4633 -0.2150 -0.1491
 1351WAT      O 6109   5.695   0.073   5.447 -0.3318 -0.2005 -0.5434
 1351WAT     H1 6110   5.708   0.123   5.517 -1.9442 -0.1704 -0.2190
 1351WAT     H2 6111   5.610   0.053   5.451  0.0078 -2.0687 -1.2572
 1351WAT    EPW 6112   5.684   0.077   5.458  0.6563 -0.3997 -0.0834
 1352WAT      O 6113   1.774   4.806   1.111  0.0998  0.0315  0.2124
 1352WAT     H1 6114   1.815   4.882   1.122  1.0239 -0.1603 -1.5381
 1352WAT     H2 6115   1.735   4.792   1.188  0.7543  1.7607  0.9015
 1352WAT    EPW 6116   1.774   4.815   1.124  0.5668  0.0810 -0.4023
 1353WAT      O 6117   4.628   5.033   0.181  0.2172 -0.0335  0.0404
 1353WAT     H1 6118   4.639   5.118   0.169 -1.8775  0.2585 -0.2166
 1353WAT     H2 6119   4.557   5.028   0.231 -1.0459 -1.6438 -1.7517
 1353WAT    EPW 6120   4.619   5.045   0.187  0.5473  0.0396  0.4842
 1354WAT      O 6121   6.476   2.558   7.563 -0.2070 -0.1285 -0.2812
 1354WAT     H1 6122   6.496   2.643   7.559  0.6774 -0.2431  1.0302
 1354WAT     H2 6123   6.487   2.539   7.648 -1.4025 -1.3144 -0.3652
 1354WAT    EPW 6124   6.481   2.568   7.575 -0.6988 -0.0404  0.1057
 1355WAT      O 6125   6.993   6.819   4.612  0.0179  0.0030  0.2025
 1355WAT     H1 6126   7.003   6.894   4.569 -0.5870 -0.5324 -0.9064
 1355WAT     H2 6127   7.055   6.767   4.579  0.6510  0.1007  1.2033
 1355WAT    EPW 6128   7.004   6.822   4.601 -0.2687  0.1250 -0.3630
 1356WAT      O 6129   1.149   2.164   1.068 -0.2255 -0.4311 -0.1678
 1356WAT     H1 6130   1.145   2.149   0.982 -0.7075 -0.2869 -0.1750
 1356WAT     H2 6131   1.087   2.225   1.080 -0.8098 -1.1339  0.4311
 1356WAT    EPW 6132   1.139   2.171   1.057  0.5666 -0.4721 -0.1560
 1357WAT      O 6133   2.007   0.627   4.615 -0.0204  0.3043 -0.3781
 1357WAT     H1 6134   1.965   0.623   4.539  0.1215  1.3150 -0.5157
 1357WAT     H2 6135   2.044   0.706   4.615 -0.1888  0.4056  0.8356
 1357WAT    EPW 6136   2.007   0.638   4.604  0.6518 -0.1095  0.3270
 1358WAT      O 6137   3.440   0.953   5.434  0.0386  0.0261  0.4782
 1358WAT     H1 6138   3.436   0.880   5.386 -0.3095 -0.4961  1.2674
 1358WAT     H2 6139   3.483   1.009   5.384 -1.3161 -0.1155 -0.9284
 1358WAT    EPW 6140   3.446   0.950   5.420 -0.3059  0.1761  0.3801
 1359WAT      O 6141   2.279   0.444   4.301  0.7686  0.4885 -0.8858
 1359WAT     H1 6142   2.336   0.503   4.333 -2.7188  2.3985  2.6946
 1359WAT     H2 6143   2.277   0.382   4.363  0.7814 -0.9074 -2.2307
 1359WAT    EPW 6144   2.287   0.444   4.315  0.2609  0.0891  0.3359
 1360WAT      O 6145   7.489   5.468   6.211 -0.6936 -0.1348  0.6644
 1360WAT     H1 6146   7.417   5.506   6.182 -0.6698  1.1962  2.1953
 1360WAT     H2 6147   7.467   5.438   6.290  0.6278  1.1443  1.5806
 1360WAT    EPW 6148   7.475   5.469   6.218  0.0622 -0.1437  0.0688
 1361WAT      O 6149   4.099   5.437   3.439 -0.4633  0.1187 -0.5019
 1361WAT     H1 6150   4.148   5.366   3.448 -0.8997 -0.3064 -1.3165
 1361WAT     H2 6151   4.031   5.409   3.392 -0.1882  1.2694 -1.6622
 1361WAT    EPW 6152   4.096   5.422   3.433  0.1671  0.5063 -0.2051
 1362WAT      O 6153   1.873   0.346   4.327  0.5146 -0.4794  0.8729
 1362WAT     H1 6154   1.861   0.282   4.269  2.4226 -0.9519  0.9093
 1362WAT     H2 6155   1.892   0.304   4.401  0.8205  0.1207  1.1499
 1362WAT    EPW 6156   1.874   0.331   4.330  0.8381 -0.1180 -0.5587
 1363WAT      O 6157   5.901   2.289   7.423  0.4233 -0.2333 -0.1283
 1363WAT     H1 6158   5.862   2.363   7.449  0.4638 -0.0101 -0.6786
 1363WAT     H2 6159   5.909   2.243   7.497 -3.0162 -1.3377 -0.2640
 1363WAT    EPW 6160   5.897   2.293   7.438 -0.6690 -0.3164  0.1316
 1364WAT      O 6161   3.088   6.624   5.789 -0.2230 -0.4382 -0.1744
 1364WAT     H1 6162   3.147   6.598   5.848 -1.6383 -0.7370  1.1866
 1364WAT     H2 6163   3.025   6.564   5.796 -1.3896  0.7193 -0.4436
 1364WAT    EPW 6164   3.087   6.611   5.799 -0.3392  0.0716  0.1660
 1365WAT      O 6165   1.246   3.832   7.459  0.0620  0.0658  0.1923
 1365WAT     H1 6166   1.318   3.838   7.411 -0.5139 -0.3792 -0.7606
 1365WAT     H2 6167   1.244   3.908   7.502  0.0113  0.9801 -1.3478
 1365WAT    EPW 6168   1.256   3.845   7.458  0.5001 -0.2990 -0.1258
 1366WAT      O 6169   7.490   4.489   3.927  0.5516 -0.1778  0.4398
 1366WAT     H1 6170   7.416   4.452   3.952  0.2633  0.4521  0.5344
 1366WAT     H2 6171   7.472   4.518   3.847  1.1864 -1.3891 -0.1724
 1366WAT    EPW 6172   7.477   4.488   3.919 -0.2231 -0.5464  0.7352
 1367WAT      O 6173   5.705   6.733   6.944  0.7181 -0.4270 -0.3751
 1367WAT     H1 6174   5.733   6.806   6.906  0.5922  0.6702  1.5496
 1367WAT     H2 6175   5.757   6.724   7.013 -0.1984 -1.3573  0.2267
 1367WAT    EPW 6176   5.717   6.742   6.948  0.4632  0.0132  0.4496
 1368WAT      O 6177   6.599   2.856   7.513 -0.3789  0.8796 -0.2264
 1368WAT     H1 6178   6.605   2.821   7.593 -2.8091 -0.2846 -0.4592
 1368WAT     H2 6179   6.671   2.828   7.472 -0.6185 -1.1213  0.6334
 1368WAT    EPW 6180   6.610   2.847   7.519 -0.2060  0.0890  0.0689
 1369WAT      O 6181   4.041   3.933   3.723  0.3602  0.4016  0.1762
 1369WAT     H1 6182   4.003   3.999   3.681  2.0866  0.4340 -1.4757
 1369WAT     H2 6183   3.973   3.883   3.748 -0.9156  2.2501  0.6022
 1369WAT    EPW 6184   4.025   3.935   3.721 -0.1834 -0.1603  0.1655
 1370WAT      O 6185   4.004   6.349   1.049  0.0001  0.2956 -0.1435
 1370WAT     H1 6186   4.034   6.339   0.968 -0.0487 -0.9790 -0.0215
 1370WAT     H2 6187   3.966   6.272   1.067 -0.6025  0.7928  0.8366
 1370WAT    EPW 6188   4.003   6.336   1.040 -0.1056  0.2920  0.0978
 1371WAT      O 6189   6.942   2.289   3.311  0.2637  0.5617  0.6891
 1371WAT     H1 6190   6.863   2.267   3.341  0.3732  0.2057  0.7191
 1371WAT     H2 6191   6.993   2.284   3.382  0.6402 -0.8596  0.3464
 1371WAT    EPW 6192   6.938   2.285   3.326 -0.3910 -0.0509 -0.4604
 1372WAT      O 6193   4.739   2.235   1.141 -0.1285 -0.1217 -0.4000
 1372WAT     H1 6194   4.746   2.239   1.054  0.6655 -1.4346 -0.4275
 1372WAT     H2 6195   4.789   2.166   1.162 -0.8374 -0.2265  1.0372
 1372WAT    EPW 6196   4.747   2.225   1.132  0.0922  0.2809  0.2213
 1373WAT      O 6197   6.628   5.037   6.313 -0.0037  0.2858  0.0482
 1373WAT     H1 6198   6.676   5.095   6.357 -0.1751  0.7144 -0.3161
 1373WAT     H2 6199   6.687   4.987   6.274  0.1489  0.0064  0.6190
 1373WAT    EPW 6200   6.644   5.038   6.314  0.6607 -0.8788 -0.2950
 1374WAT      O 6201   7.068   4.015   3.150  0.3306  0.0623  0.6540
 1374WAT     H1 6202   7.023   4.033   3.223 -1.4094  1.6228 -0.7060
 1374WAT     H2 6203   7.117   4.087   3.139 -0.3835  0.4180 -0.3577
 1374WAT    EPW 6204   7.069   4.028   3.159  0.6379  0.4636  0.0726
 1375WAT      O 6205   2.841   3.992   2.342  0.3063  0.8937 -0.9249
 1375WAT     H1 6206   2.850   3.912   2.376  1.1794  1.8953  1.3690
 1375WAT     H2 6207   2.840   3.977   2.256  0.2348 -1.5926 -0.5673
 1375WAT    EPW 6208   2.842   3.978   2.334 -0.3056  0.2480 -0.8159
 1376WAT      O 6209   1.069   3.440   1.153 -0.1780 -0.4067  0.1307
 1376WAT     H1 6210   1.059   3.406   1.073 -1.5547 -0.8215  0.4564
 1376WAT     H2 6211   1.029   3.382   1.205 -0.3688  0.4617  0.9765
 1376WAT    EPW 6212   1.062   3.426   1.149 -0.8927  0.5253 -0.6013
 1377WAT      O 6213   0.174   0.369   5.740  0.0986  0.1456 -0.3711
 1377WAT     H1 6214   0.088   0.366   5.725 -0.2648 -0.2173  1.4814
 1377WAT     H2 6215   0.201   0.289   5.718 -0.1680  0.0373 -0.3114
 1377WAT    EPW 6216   0.165   0.357   5.735  0.3359  0.1660  0.1487
 1378WAT      O 6217   1.668   7.304   0.351 -0.0096 -0.1159 -0.2498
 1378WAT     H1 6218   1.638   7.343   0.279 -0.5334 -0.0457  0.0003
 1378WAT     H2 6219   1.610   7.240   0.365  0.8562 -1.0379 -0.6844
 1378WAT    EPW 6220   1.655   7.300   0.343 -0.2201 -0.2670  0.0127
 1379WAT      O 6221   6.636   3.106   6.823 -0.1895 -0.0192 -0.3760
 1379WAT     H1 6222   6.560   3.149   6.815 -0.9096 -1.2995 -0.6781
 1379WAT     H2 6223   6.633   3.075   6.904 -0.6279 -1.2023 -0.8283
 1379WAT    EPW 6224   6.624   3.108   6.834  0.5206  0.1228 -0.3525
 1380WAT      O 6225   0.340   2.401   2.741 -1.1009  0.2206  0.3891
 1380WAT     H1 6226   0.314   2.325   2.708 -0.2530  0.2776 -0.4419
 1380WAT     H2 6227   0.361   2.448   2.671 -0.5059  0.8083  0.9437
 1380WAT    EPW 6228   0.339   2.397   2.726 -0.1044  0.2297 -1.3065
 1381WAT      O 6229   6.050   2.341   4.091 -0.1431  0.4267  0.0994
 1381WAT     H1 6230   6.093   2.266   4.078  0.5485  0.8540 -0.1633
 1381WAT     H2 6231   6.042   2.345   4.177  0.2820  0.3046  0.1477
 1381WAT    EPW 6232   6.055   2.330   4.102  0.0628 -0.7494 -0.8931
 1382WAT      O 6233   0.271   4.629   7.308 -0.5371  0.0283  0.3660
 1382WAT     H1 6234   0.320   4.686   7.264  0.5334  0.5946  2.1930
 1382WAT     H2 6235   0.192   4.665   7.308 -0.9183 -0.5950 -2.0852
 1382WAT    EPW 6236   0.267   4.643   7.301 -0.2964  0.3599 -0.5477
 1383WAT      O 6237   4.605   0.540   6.543  0.7049 -0.5113  0.1417
 1383WAT     H1 6238   4.654   0.611   6.556  1.9054 -0.9752 -1.4560
 1383WAT     H2 6239   4.557   0.560   6.474  1.8770 -1.5932 -1.0404
 1383WAT    EPW 6240   4.605   0.553   6.535 -0.0427  0.0017  0.0469
 1384WAT      O 6241   6.718   3.699   4.382 -0.1476  0.2164  0.3149
 1384WAT     H1 6242   6.682   3.638   4.330 -0.6393  0.4154  0.4234
 1384WAT     H2 6243   6.784   3.656   4.419 -0.4479 -0.2385  0.3382
 1384WAT    EPW 6244   6.722   3.684   4.379  0.1375 -0.4399  0.7742
 1385WAT      O 6245   0.488   3.036   5.869  0.4401  0.2191 -0.0889
 1385WAT     H1 6246   0.528   2.994   5.803 -1.0062  0.9232 -1.5035
 1385WAT     H2 6247   0.427   2.978   5.895  0.4285  0.2784  0.0158
 1385WAT    EPW 6248   0.485   3.021   5.863 -0.3842  0.1781 -0.0349
 1386WAT      O 6249   5.435   0.333   1.093 -0.1219  0.0663  0.4738
 1386WAT     H1 6250   5.369   0.373   1.052  0.4531 -0.1977 -0.7880
 1386WAT     H2 6251   5.474   0.289   1.028  2.4288  1.6977  0.7591
 1386WAT    EPW 6252   5.431   0.332   1.077 -0.5189  0.7090 -0.0322
 1387WAT      O 6253   2.892   2.692   5.344 -0.3249 -0.2498  0.6325
 1387WAT     H1 6254   2.975   2.709   5.366  0.4576 -0.3889 -1.8365
 1387WAT     H2 6255   2.883   2.607   5.361  0.9707 -0.8746 -1.4661
 1387WAT    EPW 6256   2.903   2.682   5.350 -0.4226  0.0367  0.9648
 1388WAT      O 6257   4.615   2.370   0.215 -0.7483  0.1526  0.1665
 1388WAT     H1 6258   4.642   2.382   0.133  0.4073 -0.3175  0.4485
 1388WAT     H2 6259   4.538   2.330   0.206  0.3348 -1.8874 -0.7190
 1388WAT    EPW 6260   4.608   2.366   0.202  0.1195  0.2075 -0.0420
 1389WAT      O 6261   1.837   5.066   6.281 -0.3011 -0.3262  0.4405
 1389WAT     H1 6262   1.802   5.049   6.203  0.9635 -0.9902 -0.0217
 1389WAT     H2 6263   1.777   5.039   6.338 -1.7974  1.3235 -0.2486
 1389WAT    EPW 6264   1.823   5.060   6.278 -0.7513 -0.5757  0.1196
 1390WAT      O 6265   1.162   3.723   0.729 -0.4582 -0.5566  0.0300
 1390WAT     H1 6266   1.176   3.636   0.728  2.2454 -0.2373 -2.0897
 1390WAT     H2 6267   1.171   3.744   0.814 -2.8122 -2.4544  0.8693
 1390WAT    EPW 6268   1.165   3.713   0.742 -0.0424 -1.0455 -0.1396
 1391WAT      O 6269   4.352   2.795   5.144  1.0469  0.0357  0.4693
 1391WAT     H1 6270   4.306   2.768   5.075  1.3947 -0.1089  0.2880
 1391WAT     H2 6271   4.363   2.880   5.130 -1.0512  0.5594  1.6211
 1391WAT    EPW 6272   4.347   2.803   5.132  0.3149 -0.1819 -0.3651
 1392WAT      O 6273   0.825   2.414   6.029 -0.2058  0.1355  0.2233
 1392WAT     H1 6274   0.911   2.409   6.015 -0.2883  1.5795 -1.0056
 1392WAT     H2 6275   0.812   2.497   6.050 -1.4559  0.2441 -0.8491
 1392WAT    EPW 6276   0.836   2.425   6.030  0.2028  0.1107  0.2539
 1393WAT      O 6277   3.150   1.690   6.976  0.2554 -0.4338 -0.7424
 1393WAT     H1 6278   3.167   1.763   6.931 -0.8326  1.0090  1.0540
 1393WAT     H2 6279   3.062   1.687   6.979  0.2740 -0.3779  1.3402
 1393WAT    EPW 6280   3.139   1.700   6.970  0.2833 -0.5407  0.1631
 1394WAT      O 6281   7.237   6.086   0.276  0.4146 -0.5071 -0.5957
 1394WAT     H1 6282   7.160   6.087   0.234  1.5983 -0.4533 -2.9438
 1394WAT     H2 6283   7.228   6.022   0.335 -2.4312  1.4897  1.4259
 1394WAT    EPW 6284   7.224   6.077   0.279  0.2774  0.1425 -0.2763
 1395WAT      O 6285   1.453   2.661   1.273  0.2752 -0.0477 -0.2129
 1395WAT     H1 6286   1.401   2.725   1.302 -0.0548 -0.7393  0.7698
 1395WAT     H2 6287   1.510   2.650   1.338  1.2864  0.2657 -1.0202
 1395WAT    EPW 6288   1.454   2.669   1.287  0.2345 -0.1869 -0.5808
 1396WAT      O 6289   2.651   5.218   3.881  0.1879  0.2250  0.5436
 1396WAT     H1 6290   2.570   5.217   3.915  0.5578  1.3577  1.5204
 1396WAT     H2 6291   2.665   5.301   3.862  0.8666 -0.0718 -0.3323
 1396WAT    EPW 6292   2.641   5.230   3.883 -0.6590 -0.2292  0.3547
 1397WAT      O 6293   6.764   4.638   3.554  0.6998  0.5713 -0.2673
 1397WAT     H1 6294   6.771   4.685   3.627  1.9469  2.4736 -1.4811
 1397WAT     H2 6295   6.846   4.635   3.524  0.4851 -1.6155 -0.7540
 1397WAT    EPW 6296   6.777   4.645   3.560 -0.0699 -0.0185 -0.3742
 1398WAT      O 6297   7.449   5.836   6.665 -0.0290 -0.0663  0.4286
 1398WAT     H1 6298   7.424   5.896   6.607 -1.2320 -0.7159  0.2464
 1398WAT     H2 6299   7.420   5.761   6.631  0.5661 -0.6287  1.1395
 1398WAT    EPW 6300   7.441   5.834   6.652  0.2539 -0.1903 -0.3068
 1399WAT      O 6301   3.950   4.975   3.372  0.1835 -0.1780  0.0004
 1399WAT     H1 6302   4.033   4.951   3.386 -0.2235 -2.2589 -0.6956
 1399WAT     H2 6303   3.914   4.973   3.451  0.8559  1.0942  0.3575
 1399WAT    EPW 6304   3.957   4.971   3.386  0.4526  0.3276  0.2884
 1400WAT      O 6305   5.056   4.173   3.688  0.0337  0.2088 -0.6566
 1400WAT     H1 6306   5.063   4.212   3.766 -2.8207  0.0614 -0.2004
 1400WAT     H2 6307   5.023   4.235   3.637 -0.1810 -0.2962 -1.1441
 1400WAT    EPW 6308   5.052   4.188   3.692  0.1435 -0.3340  0.1840
 1401WAT      O 6309   4.977   0.555   6.789 -0.0048 -0.1669 -0.1116
 1401WAT     H1 6310   5.056   0.574   6.758  0.4474 -0.7154  0.6708
 1401WAT     H2 6311   4.990   0.484   6.838 -1.0489 -0.4997 -0.2703
 1401WAT    EPW 6312   4.990   0.547   6.792  0.5564  0.1112 -0.0035
 1402WAT      O 6313   5.857   0.209   1.830  0.1071 -0.6862  0.4279
 1402WAT     H1 6314   5.846   0.124   1.846 -0.4882 -0.3626  1.9009
 1402WAT     H2 6315   5.833   0.247   1.905  0.5040  0.7739 -0.1559
 1402WAT    EPW 6316   5.852   0.202   1.843 -0.1909  0.0186 -0.1109
 1403WAT      O 6317   0.960   1.380   2.805  0.5259 -0.5880  0.2722
 1403WAT     H1 6318   1.015   1.323   2.768  1.7756  1.7937 -1.8217
 1403WAT     H2 6319   0.882   1.344   2.792  1.1446 -1.2282 -2.3682
 1403WAT    EPW 6320   0.957   1.366   2.797  0.2830  0.7903 -0.5405
 1404WAT      O 6321   3.600   5.694   2.714 -0.1355 -0.0501  0.1191
 1404WAT     H1 6322   3.542   5.718   2.775 -1.2772 -1.2825 -0.4331
 1404WAT     H2 6323   3.667   5.749   2.727 -0.7952  0.4361  1.7494
 1404WAT    EPW 6324   3.601   5.706   2.725  0.2999 -0.0513  0.3074
 1405WAT      O 6325   6.543   7.215   6.494  0.7040  0.3897  0.3376
 1405WAT     H1 6326   6.473   7.261   6.471 -0.4005 -0.8407  1.1008
 1405WAT     H2 6327   6.572   7.256   6.565  1.1881  1.2840 -0.3468
 1405WAT    EPW 6328   6.537   7.228   6.501 -0.0207  0.3754  0.6042
 1406WAT      O 6329   4.875   6.380   1.385  0.1988  0.6494 -0.2487
 1406WAT     H1 6330   4.899   6.351   1.464  2.4720  1.6685 -0.5112
 1406WAT     H2 6331   4.930   6.445   1.369 -0.6488  0.9054 -2.4166
 1406WAT    EPW 6332   4.886   6.385   1.394 -0.6569  0.3896  0.1732
 1407WAT      O 6333   4.737   6.906   2.935  0.4252 -0.2685 -0.4260
 1407WAT     H1 6334   4.796   6.969   2.923  0.9293 -0.7193 -0.2904
 1407WAT     H2 6335   4.760   6.870   3.010 -0.9650  0.5826  0.4629
 1407WAT    EPW 6336   4.749   6.910   2.944 -0.0887  0.5077  0.0331
 1408WAT      O 6337   3.292   2.098   4.767 -0.2196 -0.0030 -0.2494
 1408WAT     H1 6338   3.273   2.118   4.849 -1.0579 -0.6449 -0.2843
 1408WAT     H2 6339   3.333   2.170   4.738  1.3431 -0.2805  1.1193
 1408WAT    EPW 6340   3.295   2.112   4.775 -0.3364  0.2223  0.3201
 1409WAT      O 6341   1.684   6.384   6.748 -0.3084 -0.1654 -0.2057
 1409WAT     H1 6342   1.678   6.311   6.795  0.0853 -1.5121 -2.1160
 1409WAT     H2 6343   1.606   6.422   6.760 -0.5911 -0.9755  0.6928
 1409WAT    EPW 6344   1.671   6.379   6.757 -0.3443 -0.0829  0.0098
 1410WAT      O 6345   1.245   1.181   4.719  0.8104  0.6575  0.0770
 1410WAT     H1 6346   1.163   1.207   4.704  0.4982  0.3092  1.1131
 1410WAT     H2 6347   1.251   1.107   4.672  0.6108  0.8032 -0.1832
 1410WAT    EPW 6348   1.234   1.174   4.710 -0.1487  0.1198 -0.3882
 1411WAT      O 6349   5.704   0.485   7.153  0.6160  0.1103  0.1122
 1411WAT     H1 6350   5.672   0.427   7.210  2.7371 -1.6474 -0.3284
 1411WAT     H2 6351   5.677   0.455   7.076  1.0591  0.1553 -0.0659
 1411WAT    EPW 6352   5.696   0.472   7.150 -0.2319 -0.5468  0.2403
 1412WAT      O 6353   2.757   2.646   6.773  0.3783 -0.2583 -0.2102
 1412WAT     H1 6354   2.800   2.573   6.794  1.1794  0.3773  0.4303
 1412WAT     H2 6355   2.679   2.634   6.811  0.3603 -0.9434 -0.4412
 1412WAT    EPW 6356   2.752   2.633   6.782 -0.0286 -0.5115 -0.3507
 1413WAT      O 6357   5.952   1.146   5.573  0.3116  0.1697 -0.2491
 1413WAT     H1 6358   6.024   1.096   5.581  0.1578  0.1565  1.3419
 1413WAT     H2 6359   5.982   1.227   5.582 -0.1505  0.0780  3.6829
 1413WAT    EPW 6360   5.967   1.150   5.576  0.1491 -0.7169  0.1613
 1414WAT      O 6361   5.648   3.997   4.872  0.2013 -0.3356  0.1838
 1414WAT     H1 6362   5.671   4.079   4.887  4.0628 -1.5101  1.9853
 1414WAT     H2 6363   5.594   3.978   4.938 -0.1985  0.5213  0.1132
 1414WAT    EPW 6364   5.643   4.006   4.884 -0.0836 -0.1304 -0.1697
 1415WAT      O 6365   0.155   2.187   5.882  0.1731  0.1226 -0.3324
 1415WAT     H1 6366   0.223   2.236   5.857 -0.3606  0.2511 -1.6143
 1415WAT     H2 6367   0.146   2.129   5.817 -0.9639  0.1404 -0.2160
 1415WAT    EPW 6368   0.164   2.186   5.868 -0.2018 -0.0116 -0.4218
 1416WAT      O 6369   5.731   2.422   2.775 -0.2338  0.2854  0.7465
 1416WAT     H1 6370   5.707   2.375   2.844 -1.8057  0.3888  0.2922
 1416WAT     H2 6371   5.777   2.488   2.810 -0.1535 -0.2126  1.5880
 1416WAT    EPW 6372   5.734   2.425   2.790 -0.1751 -0.3987  0.2131
 1417WAT      O 6373   5.583   3.968   1.928 -0.5223  0.0023  0.6556
 1417WAT     H1 6374   5.630   3.917   1.980  1.2950  0.7825 -0.1552
 1417WAT     H2 6375   5.638   4.031   1.905 -1.3054 -0.1936 -2.0599
 1417WAT    EPW 6376   5.598   3.970   1.932 -0.0868  0.3337 -0.1515
 1418WAT      O 6377   3.363   6.330   2.276  0.7046  0.5008 -0.1426
 1418WAT     H1 6378   3.281   6.355   2.291  0.5830  0.5386 -0.8045
 1418WAT     H2 6379   3.381   6.366   2.198  1.8011  1.5883  0.5660
 1418WAT    EPW 6380   3.353   6.339   2.267  1.1008 -0.0438  0.1890
 1419WAT      O 6381   6.792   3.473   6.484 -0.0594  0.2411  0.4900
 1419WAT     H1 6382   6.775   3.505   6.564 -0.0262 -0.4563  0.7815
 1419WAT     H2 6383   6.736   3.407   6.477  0.7858 -0.4851  0.4402
 1419WAT    EPW 6384   6.781   3.468   6.495  1.0933  0.1421 -0.2439
 1420WAT      O 6385   7.274   2.298   2.337  0.0652 -0.4715  0.7166
 1420WAT     H1 6386   7.216   2.244   2.375 -2.6487  2.6757  1.4929
 1420WAT     H2 6387   7.336   2.307   2.398 -0.9339 -0.4802  1.7731
 1420WAT    EPW 6388   7.275   2.291   2.352 -0.0922  0.1760  0.1777
 1421WAT      O 6389   4.617   2.387   0.717 -0.0477 -0.6977 -0.0284
 1421WAT     H1 6390   4.689   2.346   0.745  1.0396  1.2511  0.2791
 1421WAT     H2 6391   4.633   2.399   0.631 -1.2396 -2.5356 -0.5540
 1421WAT    EPW 6392   4.630   2.383   0.708 -0.5758  0.7836  0.1278
 1422WAT      O 6393   7.051   5.720   4.473  0.3249 -0.2084 -0.0836
 1422WAT     H1 6394   7.121   5.726   4.524  0.2649 -0.2933  0.0080
 1422WAT     H2 6395   7.074   5.764   4.401  0.5481 -0.4143 -0.1382
 1422WAT    EPW 6396   7.065   5.728   4.470 -0.1570 -0.2589  0.1707
 1423WAT      O 6397   1.024   3.731   0.118  0.0904 -0.0828 -0.0189
 1423WAT     H1 6398   1.077   3.667   0.091 -1.9301 -1.0524 -1.9941
 1423WAT     H2 6399   1.050   3.800   0.072 -0.7120 -0.7150 -1.4658
 1423WAT    EPW 6400   1.036   3.732   0.107 -0.5241 -0.4162  0.2157
 1424WAT      O 6401   2.536   3.964   1.233  0.3161 -0.4687  0.0461
 1424WAT     H1 6402   2.584   4.030   1.203 -1.0157  1.5819  2.0308
 1424WAT     H2 6403   2.573   3.944   1.309 -0.4736 -0.5946  0.4135
 1424WAT    EPW 6404   2.548   3.971   1.240  0.1867 -0.4873 -0.8453
 1425WAT      O 6405   5.524   4.784   6.829  0.1568  0.1315 -0.4351
 1425WAT     H1 6406   5.513   4.799   6.914 -0.0067 -1.1475 -0.2113
 1425WAT     H2 6407   5.487   4.853   6.791  2.1042  1.8090  0.5453
 1425WAT    EPW 6408   5.517   4.796   6.836 -0.2483 -0.1100  0.6788
 1426WAT      O 6409   4.629   6.308   4.153 -0.0411  0.1778 -0.3390
 1426WAT     H1 6410   4.626   6.362   4.084 -1.1739  0.1833 -0.3142
 1426WAT     H2 6411   4.568   6.341   4.206  0.8264  0.1716  0.6730
 1426WAT    EPW 6412   4.619   6.321   4.150  0.2564  0.4625  0.2742
 1427WAT      O 6413   5.989   3.349   1.232  0.6652  0.0418  0.3018
 1427WAT     H1 6414   5.917   3.305   1.212  1.6301 -0.7282 -1.7265
 1427WAT     H2 6415   6.036   3.291   1.277 -0.3778  0.9099  2.6595
 1427WAT    EPW 6416   5.985   3.334   1.236  1.0397  0.4337  0.8471
 1428WAT      O 6417   2.430   1.555   1.645 -0.3985  0.2155 -0.0916
 1428WAT     H1 6418   2.484   1.558   1.714 -0.2529 -2.0604 -0.0239
 1428WAT     H2 6419   2.485   1.548   1.578 -0.5690  1.4461 -0.3839
 1428WAT    EPW 6420   2.446   1.555   1.645  0.3228  0.7187  0.0067
 1429WAT      O 6421   0.598   0.718   7.027 -0.1102 -0.5019 -0.0887
 1429WAT     H1 6422   0.628   0.798   7.010  0.4457 -0.3470  1.4736
 1429WAT     H2 6423   0.605   0.677   6.951  1.5586  0.3375 -0.4346
 1429WAT    EPW 6424   0.603   0.724   7.013  0.3182  0.5978  0.4479
 1430WAT      O 6425   0.673   4.362   0.058  0.2397 -0.0916  0.0710
 1430WAT     H1 6426   0.613   4.415   0.092  1.7785  1.3175  0.7511
 1430WAT     H2 6427   0.629   4.289   0.041 -1.6787  0.9450  0.3505
 1430WAT    EPW 6428   0.658   4.359   0.061  0.2783  0.2805 -0.0586
 1431WAT      O 6429   6.937   6.776   6.549  0.0644 -0.2415  0.4280
 1431WAT     H1 6430   6.943   6.740   6.628 -0.1860 -1.8843 -0.2563
 1431WAT     H2 6431   6.883   6.843   6.561 -0.5727 -0.9227  1.4996
 1431WAT    EPW 6432   6.930   6.780   6.562  0.7640  0.1297  0.0105
 1432WAT      O 6433   4.781   0.399   3.348 -0.6999  0.5427  0.4827
 1432WAT     H1 6434   4.700   0.429   3.352 -1.4742 -1.4327  1.2548
 1432WAT     H2 6435   4.811   0.410   3.429 -0.9892 -0.6088  0.7739
 1432WAT    EPW 6436   4.774   0.405   3.361  0.1694  0.2887 -0.7287
 1433WAT      O 6437   6.229   3.945   3.984 -0.3440 -0.5221  0.3180
 1433WAT     H1 6438   6.312   3.954   3.960 -0.6903  0.9616 -0.4113
 1433WAT     H2 6439   6.216   3.858   3.982  0.7412 -0.6715 -1.0532
 1433WAT    EPW 6440   6.239   3.933   3.980  0.0934 -0.1284 -0.0768
 1434WAT      O 6441   7.362   3.127   2.182  0.2368 -0.0112 -0.0167
 1434WAT     H1 6442   7.289   3.170   2.161 -0.5019 -1.3579 -0.3443
 1434WAT     H2 6443   7.338   3.043   2.177  1.6059 -0.4667  0.6458
 1434WAT    EPW 6444   7.348   3.121   2.178  0.2714  0.2032  0.3688
 1435WAT      O 6445   1.709   1.586   0.851 -0.7220  0.1069  0.2331
 1435WAT     H1 6446   1.626   1.584   0.825 -2.0796  0.5367  3.9883
 1435WAT     H2 6447   1.712   1.652   0.909  1.9332 -0.6398  1.1239
 1435WAT    EPW 6448   1.697   1.596   0.856  0.6520 -0.3673  0.6721
 1436WAT      O 6449   5.461   1.526   4.806  0.3672 -0.4744 -0.4699
 1436WAT     H1 6450   5.496   1.606   4.817 -1.2330  0.0879  1.0275
 1436WAT     H2 6451   5.403   1.538   4.743  0.3837 -0.5470 -0.4985
 1436WAT    EPW 6452   5.458   1.540   4.798 -0.6736  0.8941  0.1886
 1437WAT      O 6453   6.344   5.118   2.588 -0.2623 -0.0788  0.6083
 1437WAT     H1 6454   6.273   5.087   2.547 -0.2254 -0.1393  0.5901
 1437WAT     H2 6455   6.402   5.128   2.524 -0.2958  0.0934  0.6031
 1437WAT    EPW 6456   6.342   5.115   2.572  0.0617 -0.2398  0.6331
 1438WAT      O 6457   7.645   4.330   5.571  0.8684  0.3330  0.3712
 1438WAT     H1 6458   7.660   4.346   5.656  1.6369  2.0004 -0.0376
 1438WAT     H2 6459   7.571   4.373   5.555  1.4176  1.1395 -0.0804
 1438WAT    EPW 6460   7.637   4.339   5.581  0.6073 -0.0691  0.3350
 1439WAT      O 6461   6.257   2.988   0.127  0.5902  0.7017  0.0842
 1439WAT     H1 6462   6.273   2.903   0.138  1.6719  0.5638 -2.1309
 1439WAT     H2 6463   6.190   3.003   0.181  0.0877 -1.6492  0.2103
 1439WAT    EPW 6464   6.249   2.978   0.137 -0.0561  0.2421 -0.3153
 1440WAT      O 6465   4.919   0.835   0.505  0.1175  0.1432  0.1209
 1440WAT     H1 6466   4.997   0.861   0.478 -0.1330  0.9222  0.1087
 1440WAT     H2 6467   4.889   0.786   0.440 -0.2253  1.4887 -0.7751
 1440WAT    EPW 6468   4.926   0.832   0.492  0.2559  0.0165 -0.0828
 1441WAT      O 6469   2.096   3.414   0.991 -0.2410  0.4985  0.2539
 1441WAT     H1 6470   2.134   3.335   0.992 -0.0430  0.5985  1.3736
 1441WAT     H2 6471   2.162   3.468   0.974 -0.3979  0.4247 -0.6362
 1441WAT    EPW 6472   2.111   3.410   0.988  0.0296 -0.0000  0.1094
 1442WAT      O 6473   2.854   2.482   1.831  0.8749 -0.2863 -0.2557
 1442WAT     H1 6474   2.842   2.519   1.909  0.9397 -0.3092 -0.2351
 1442WAT     H2 6475   2.846   2.548   1.776  0.2943 -0.3597 -0.2672
 1442WAT    EPW 6476   2.851   2.497   1.835  0.4914 -0.3907  0.1834
 1443WAT      O 6477   5.626   4.809   4.777 -0.0432  0.0526 -0.3696
 1443WAT     H1 6478   5.550   4.801   4.820  0.0702  1.7067  0.2278
 1443WAT     H2 6479   5.662   4.730   4.784 -0.9389 -0.2852  0.8390
 1443WAT    EPW 6480   5.620   4.796   4.784 -0.0220  0.6728 -0.6033
 1444WAT      O 6481   6.909   6.438   6.109 -0.4452 -0.1536 -0.0214
 1444WAT     H1 6482   6.983   6.408   6.144  0.0255  0.1437 -0.7570
 1444WAT     H2 6483   6.885   6.501   6.164  0.0728  0.0363 -0.0065
 1444WAT    EPW 6484   6.916   6.443   6.122 -0.5422  0.6078 -0.2758
 1445WAT      O 6485   5.299   7.013   1.439 -0.4395 -0.2807 -0.1797
 1445WAT     H1 6486   5.365   7.058   1.403 -1.1946  0.9898 -0.0265
 1445WAT     H2 6487   5.292   7.047   1.519 -1.8142  0.2025 -0.4790
 1445WAT    EPW 6488   5.308   7.024   1.446  0.3125 -0.0536  0.3359
 1446WAT      O 6489   0.588   2.949   0.890 -0.4447  0.2176 -0.6495
 1446WAT     H1 6490   0.611   2.990   0.963 -1.7224 -0.7863  0.3653
 1446WAT     H2 6491   0.655   2.963   0.836  0.8161  0.4523  0.9200
 1446WAT    EPW 6492   0.601   2.957   0.893 -0.2041 -0.2764  0.0997
 1447WAT      O 6493   4.875   0.307   4.748  0.0009  0.0514 -0.2526
 1447WAT     H1 6494   4.955   0.337   4.729 -0.3201  1.1801  0.1196
 1447WAT     H2 6495   4.832   0.315   4.672  0.1575 -0.3086 -0.3832
 1447WAT    EPW 6496   4.880   0.313   4.734  0.0349 -0.2221 -0.4974
 1448WAT      O 6497   3.168   0.048   5.836 -0.0905 -0.2875  0.1599
 1448WAT     H1 6498   3.170  -0.027   5.880  0.4654  0.0842  0.7784
 1448WAT     H2 6499   3.230   0.038   5.775 -1.4028 -1.1188 -1.1009
 1448WAT    EPW 6500   3.177   0.035   5.833  0.2454  0.2460  0.1100
 1449WAT      O 6501   3.847   1.549   5.218 -0.1105  0.7021 -0.3028
 1449WAT     H1 6502   3.849   1.462   5.224  0.2819  0.7172 -0.1922
 1449WAT     H2 6503   3.855   1.576   5.300 -0.4211  0.8419 -0.3174
 1449WAT    EPW 6504   3.848   1.541   5.231 -0.5197  0.4811  0.2853
 1450WAT      O 6505   1.964   5.275   6.007  0.5675 -0.1049 -0.3401
 1450WAT     H1 6506   1.994   5.204   5.966 -0.5245 -0.4052 -0.6427
 1450WAT     H2 6507   2.015   5.280   6.078  3.7608  1.5075 -2.5260
 1450WAT    EPW 6508   1.976   5.265   6.012  0.1257  0.1936  0.0436
 1451WAT      O 6509   2.373   6.126   3.327  0.0560 -0.0357 -0.2213
 1451WAT     H1 6510   2.340   6.101   3.404  0.8385  0.3523  0.2529
 1451WAT     H2 6511   2.405   6.206   3.343  0.7411 -0.1815 -0.7926
 1451WAT    EPW 6512   2.373   6.134   3.341  0.5298  0.1814  0.6621
 1452WAT      O 6513   1.042   1.768   4.816 -0.0863 -0.0374 -0.3309
 1452WAT     H1 6514   1.066   1.732   4.892  0.5748  1.1546  0.0617
 1452WAT     H2 6515   1.038   1.700   4.761 -0.7939 -0.9507  0.8109
 1452WAT    EPW 6516   1.045   1.753   4.819  0.8365 -0.1673 -0.6007
 1453WAT      O 6517   7.576   2.032   2.688  0.3392  0.0493  0.2723
 1453WAT     H1 6518   7.503   1.994   2.662  1.5431 -1.2563 -1.4272
 1453WAT     H2 6519   7.599   1.987   2.758  0.3528 -0.6143 -0.1525
 1453WAT    EPW 6520   7.569   2.020   2.694  0.2018 -0.2444 -0.5865
 1454WAT      O 6521   4.311   4.175   5.676  0.2860 -0.1945  0.0070
 1454WAT     H1 6522   4.245   4.122   5.698  0.4504  0.0791  1.2162
 1454WAT     H2 6523   4.293   4.249   5.718  0.6584  0.3521 -0.7572
 1454WAT    EPW 6524   4.299   4.178   5.685 -0.0027  0.5082  0.2267
 1455WAT      O 6525   4.062   4.147   6.668  0.3691 -0.1465 -0.2148
 1455WAT     H1 6526   4.141   4.149   6.632  0.0198 -0.9042 -1.0654
 1455WAT     H2 6527   4.018   4.209   6.626 -0.1699 -1.3293 -1.4619
 1455WAT    EPW 6528   4.067   4.157   6.657  0.0579 -0.4747 -0.3839
 1456WAT      O 6529   1.067   7.064   1.095 -0.1986  0.5391 -0.2497
 1456WAT     H1 6530   1.010   7.048   1.031 -0.5295  0.4035  0.0750
 1456WAT     H2 6531   1.029   7.128   1.140 -0.6506 -0.3400  0.6488
 1456WAT    EPW 6532   1.053   7.071   1.092 -0.2121 -0.3583  0.6146
 1457WAT      O 6533   3.899   7.336   3.177  0.5924 -0.4195  0.1663
 1457WAT     H1 6534   3.875   7.369   3.255 -1.8512  1.7754 -1.3374
 1457WAT     H2 6535   3.950   7.268   3.198  1.2395  0.9333  3.6266
 1457WAT    EPW 6536   3.903   7.331   3.192 -0.2884 -0.5117  0.0872
 1458WAT      O 6537   0.560   1.838   2.946  0.8376 -0.3277  0.0721
 1458WAT     H1 6538   0.614   1.861   3.010  1.5901  0.3705 -0.7887
 1458WAT     H2 6539   0.612   1.827   2.877  0.2749 -2.8768 -0.0253
 1458WAT    EPW 6540   0.575   1.840   2.945  0.3386  0.3076  0.0587
 1459WAT      O 6541   6.598   5.748   4.971  0.0106  0.6552  0.2753
 1459WAT     H1 6542   6.663   5.736   5.028 -0.4603 -0.1931  0.6526
 1459WAT     H2 6543   6.526   5.733   5.019 -0.3498 -2.1310 -0.9776
 1459WAT    EPW 6544   6.597   5.744   4.987  0.0881  0.1553  0.5445
 1460WAT      O 6545   6.753   3.723   7.198  0.9118  0.3164  0.1285
 1460WAT     H1 6546   6.805   3.793   7.196  0.4767  0.7237  1.7568
 1460WAT     H2 6547   6.690   3.745   7.254  0.3950 -1.1360  0.1719
 1460WAT    EPW 6548   6.751   3.736   7.206 -0.8238 -0.4122  0.1105
 1461WAT      O 6549   6.427   3.239   5.654 -0.3822  0.7183  0.0651
 1461WAT     H1 6550   6.344   3.233   5.628  0.2206  2.2695 -2.5808
 1461WAT     H2 6551   6.441   3.325   5.659  0.7785  0.4927  1.6383
 1461WAT    EPW 6552   6.417   3.251   5.651 -0.2772 -0.1212 -0.6112
 1462WAT      O 6553   0.355   1.905   5.288  0.8559 -0.8950 -0.2833
 1462WAT     H1 6554   0.412   1.970   5.302 -0.8379  0.7032 -0.4489
 1462WAT     H2 6555   0.391   1.837   5.329  0.7210  1.1601  3.8022
 1462WAT    EPW 6556   0.369   1.905   5.296  0.6493  0.0188  0.2981
 1463WAT      O 6557   6.379   0.432   6.848 -0.0327  0.1122 -0.5856
 1463WAT     H1 6558   6.322   0.452   6.785 -0.7603 -0.5425 -0.1507
 1463WAT     H2 6559   6.389   0.345   6.840 -1.2247 -0.2241  1.0704
 1463WAT    EPW 6560   6.372   0.422   6.837 -0.5095  0.0445  0.4479
 1464WAT      O 6561   2.007   3.815   4.087 -0.0871 -0.2582 -0.0993
 1464WAT     H1 6562   2.093   3.825   4.073 -0.4824  1.2133 -1.7173
 1464WAT     H2 6563   1.979   3.896   4.100 -1.4833 -0.5297 -1.2343
 1464WAT    EPW 6564   2.016   3.828   4.087 -0.4690 -0.4311  0.0580
 1465WAT      O 6565   7.040   3.848   5.724 -0.5124 -0.5691 -0.6878
 1465WAT     H1 6566   7.055   3.764   5.703  1.2645 -0.7820  1.1910
 1465WAT     H2 6567   7.107   3.869   5.775 -1.4118  1.7507 -0.3433
 1465WAT    EPW 6568   7.052   3.839   5.728  0.3926  0.1824 -0.9161
 1466WAT      O 6569   7.129   0.128   1.046  0.0273 -0.2645  0.3812
 1466WAT     H1 6570   7.175   0.070   1.000  1.0630 -0.9352  2.1691
 1466WAT     H2 6571   7.187   0.159   1.103 -1.0346  1.0529  0.7940
 1466WAT    EPW 6572   7.144   0.124   1.047 -0.0659  0.0828 -0.0779
 1467WAT      O 6573   2.554   4.890   3.021  0.1659 -0.2718 -0.3367
 1467WAT     H1 6574   2.596   4.950   2.974  0.0066  0.3384  0.2850
 1467WAT     H2 6575   2.555   4.923   3.102 -0.7607 -0.6395 -0.1626
 1467WAT    EPW 6576   2.560   4.904   3.026 -0.1370  0.1776  0.3505
 1468WAT      O 6577   7.571   3.211   2.336  0.1249 -0.5320  0.9964
 1468WAT     H1 6578   7.552   3.276   2.390  0.6383  0.0323  0.5090
 1468WAT     H2 6579   7.493   3.183   2.309 -0.1142 -0.4364  1.5635
 1468WAT    EPW 6580   7.557   3.216   2.340  0.5766  0.4401 -0.2705
 1469WAT      O 6581   1.863   2.470   1.875 -0.0821  0.2170 -0.1021
 1469WAT     H1 6582   1.893   2.412   1.818 -0.1806  0.1229 -0.0573
 1469WAT     H2 6583   1.777   2.459   1.873 -0.1896  1.0216 -0.8177
 1469WAT    EPW 6584   1.855   2.460   1.866  0.0608  0.3716 -0.5792
 1470WAT      O 6585   7.573   3.250   3.279  0.3215 -0.0933 -0.0956
 1470WAT     H1 6586   7.539   3.199   3.341  0.1388 -0.0782 -0.1820
 1470WAT     H2 6587   7.603   3.319   3.323  2.4945 -1.2071  0.2938
 1470WAT    EPW 6588   7.572   3.252   3.294 -0.6947  0.1971 -0.3292
 1471WAT      O 6589   6.623   4.584   5.574  0.0521  0.1227 -0.2302
 1471WAT     H1 6590   6.567   4.646   5.547 -0.9969 -1.1188 -1.0489
 1471WAT     H2 6591   6.700   4.625   5.576 -0.6575  1.5336 -0.4096
 1471WAT    EPW 6592   6.626   4.599   5.570 -0.2043 -0.5145 -0.2313
 1472WAT      O 6593   6.542   4.440   4.142 -0.5880 -0.3067 -0.1129
 1472WAT     H1 6594   6.509   4.518   4.120  1.1186  0.2828 -0.7518
 1472WAT     H2 6595   6.509   4.386   4.082  0.1092  0.3815 -1.1472
 1472WAT    EPW 6596   6.532   4.443   4.130 -0.3132 -0.1306  0.0120
 1473WAT      O 6597   3.944   1.527   2.012  0.0074 -0.1777  0.1842
 1473WAT     H1 6598   3.919   1.505   1.931 -1.4087 -0.9288  0.7889
 1473WAT     H2 6599   3.987   1.456   2.040 -1.0389 -0.6375  0.6900
 1473WAT    EPW 6600   3.946   1.513   2.004 -0.4822  0.3035  0.4381
 1474WAT      O 6601   2.492   5.522   2.205  0.5708 -0.2350  0.3390
 1474WAT     H1 6602   2.500   5.606   2.184 -1.0044 -0.0552  0.3711
 1474WAT     H2 6603   2.451   5.488   2.136  0.9341 -0.9194  0.4568
 1474WAT    EPW 6604   2.487   5.529   2.192  0.6200 -0.4236  0.5779
 1475WAT      O 6605   3.138   0.976   3.659  0.0611 -0.0168 -0.2090
 1475WAT     H1 6606   3.178   1.021   3.723 -0.0520  0.5191 -0.5113
 1475WAT     H2 6607   3.137   0.894   3.690  0.7017  0.0957  0.1407
 1475WAT    EPW 6608   3.144   0.970   3.673  0.4982  0.2635  0.3493
 1476WAT      O 6609   5.806   1.991   1.368  0.2895  0.2017 -0.1171
 1476WAT     H1 6610   5.729   2.019   1.339  0.9786 -0.3435 -2.7778
 1476WAT     H2 6611   5.855   2.063   1.373 -0.1079  0.4226  0.6400
 1476WAT    EPW 6612   5.802   2.006   1.365  0.7221 -0.0364 -0.3947
 1477WAT      O 6613   4.846   4.276   1.447 -0.1611 -0.1685  0.2009
 1477WAT     H1 6614   4.800   4.342   1.414  0.2415  0.7782  1.4468
 1477WAT     H2 6615   4.833   4.211   1.390 -1.2445  0.7265 -0.6156
 1477WAT    EPW 6616   4.838   4.276   1.434  0.0985 -0.3590  0.5448
 1478WAT      O 6617   6.119   4.698   6.926  0.3262  0.3911  0.1382
 1478WAT     H1 6618   6.033   4.684   6.914  0.3508  0.3637 -0.0068
 1478WAT     H2 6619   6.123   4.783   6.947  0.1189  0.0715  1.5892
 1478WAT    EPW 6620   6.107   4.708   6.928 -0.0280  0.2125 -0.4070
 1479WAT      O 6621   0.936   4.011   4.513 -0.5876 -0.5059 -0.4352
 1479WAT     H1 6622   0.928   4.058   4.586 -3.5312  0.8336 -1.5035
 1479WAT     H2 6623   0.968   4.068   4.455 -2.4507 -0.2320 -1.2625
 1479WAT    EPW 6624   0.940   4.026   4.516 -0.4822  0.2575 -0.2820
 1480WAT      O 6625   5.205   4.237   5.448 -0.3880  0.0391 -0.2805
 1480WAT     H1 6626   5.119   4.248   5.440 -0.1834  0.9937 -1.4414
 1480WAT     H2 6627   5.230   4.303   5.501 -0.3755 -0.3215  0.1729
 1480WAT    EPW 6628   5.196   4.248   5.455 -0.2922  0.6958  0.2662
 1481WAT      O 6629   7.606   4.776   5.855 -0.2796  0.1654  0.5691
 1481WAT     H1 6630   7.583   4.823   5.925 -1.4432 -1.0649  1.0544
 1481WAT     H2 6631   7.689   4.755   5.871  0.0876  1.5459  0.6069
 1481WAT    EPW 6632   7.615   4.780   5.868  0.3728  0.0038  0.1417
 1482WAT      O 6633   4.807   5.680   2.621 -0.1190 -0.1663  0.4613
 1482WAT     H1 6634   4.763   5.659   2.694 -1.6003  1.7051  0.1996
 1482WAT     H2 6635   4.879   5.717   2.651 -0.4707  0.1173  0.9816
 1482WAT    EPW 6636   4.811   5.682   2.636  0.0100 -0.5322 -0.3096
 1483WAT      O 6637   5.173   0.319   6.527 -0.4685  0.2195  0.9364
 1483WAT     H1 6638   5.243   0.368   6.509  0.2783 -1.5614 -1.5044
 1483WAT     H2 6639   5.190   0.287   6.607  2.3543 -1.3980 -0.1936
 1483WAT    EPW 6640   5.186   0.321   6.536 -0.5018 -0.0194 -0.2155
 1484WAT      O 6641   5.724   3.761   2.948  0.8842 -0.3062  0.0780
 1484WAT     H1 6642   5.719   3.800   3.026 -0.8355 -2.3482  1.1069
 1484WAT     H2 6643   5.791   3.705   2.958  1.3128  0.1264 -0.2980
 1484WAT    EPW 6644   5.733   3.758   2.961  0.5320 -0.0884 -0.1516
 1485WAT      O 6645   7.204   3.684   0.258 -0.3734  0.3605  0.4641
 1485WAT     H1 6646   7.127   3.643   0.267  0.4901 -1.0199  2.0889
 1485WAT     H2 6647   7.243   3.671   0.335  1.6433  0.7390 -0.4342
 1485WAT    EPW 6648   7.198   3.676   0.271  0.5101 -0.3861 -0.0782
 1486WAT      O 6649   5.594   4.401   0.724 -0.0098 -0.1794  0.5396
 1486WAT     H1 6650   5.550   4.443   0.787  4.5118  1.9350  2.7746
 1486WAT     H2 6651   5.587   4.455   0.655 -1.3123 -0.1943  0.6437
 1486WAT    EPW 6652   5.587   4.415   0.723  0.0883  0.7492  0.4322
 1487WAT      O 6653   1.582   5.212   1.695 -0.2177  0.3967 -0.0129
 1487WAT     H1 6654   1.507   5.222   1.651 -1.2435  1.1524  1.8158
 1487WAT     H2 6655   1.585   5.282   1.747  0.6866 -0.6917  1.4645
 1487WAT    EPW 6656   1.571   5.224   1.696 -0.5622  0.0095 -0.8669
 1488WAT      O 6657   0.227   7.000   3.047  0.3175 -0.1547  0.0353
 1488WAT     H1 6658   0.172   6.979   3.111 -1.5642  1.6267 -0.8523
 1488WAT     H2 6659   0.233   7.087   3.054  0.9632 -0.0554 -1.4794
 1488WAT    EPW 6660   0.220   7.010   3.057  0.5220  0.0783  0.2558
 1489WAT      O 6661   7.103   0.228   3.184  0.1596 -0.3773  0.0915
 1489WAT     H1 6662   7.130   0.311   3.183 -1.8922  0.4341  2.6834
 1489WAT     H2 6663   7.167   0.186   3.227  0.9998 -0.1064 -0.8525
 1489WAT    EPW 6664   7.116   0.234   3.190 -0.1116  0.1587  0.6711
 1490WAT      O 6665   3.464   4.725   0.221 -0.5396 -0.5032  0.0416
 1490WAT     H1 6666   3.490   4.749   0.141 -0.2612 -0.9317 -0.0023
 1490WAT     H2 6667   3.428   4.797   0.254 -0.3121 -0.2159 -0.3284
 1490WAT    EPW 6668   3.463   4.739   0.214  0.2417 -0.0541  0.0915
 1491WAT      O 6669   0.578   6.231   5.836  0.1206 -0.4367  0.4910
 1491WAT     H1 6670   0.577   6.174   5.902  1.1070 -1.4143 -0.3029
 1491WAT     H2 6671   0.578   6.308   5.876  0.1069 -0.9986  1.6215
 1491WAT    EPW 6672   0.578   6.234   5.852 -0.4636 -0.2396  0.7293
 1492WAT      O 6673   4.844   4.068   5.294  0.1936 -0.1069  0.3170
 1492WAT     H1 6674   4.848   3.982   5.307  0.0271 -0.2316 -0.3919
 1492WAT     H2 6675   4.886   4.079   5.219  1.0099  0.5560  0.8575
 1492WAT    EPW 6676   4.851   4.057   5.285  0.1762 -0.0190 -0.0126
 1493WAT      O 6677   5.013   4.812   4.579  0.0795 -0.5387 -0.7173
 1493WAT     H1 6678   5.096   4.835   4.566  0.1473  1.9515  2.9024
 1493WAT     H2 6679   4.968   4.868   4.530  0.4749 -0.8086 -1.4019
 1493WAT    EPW 6680   5.018   4.824   4.570 -0.3945  0.0215 -0.5860
 1494WAT      O 6681   0.963   5.793   4.867 -0.3159 -0.4034 -0.4235
 1494WAT     H1 6682   0.915   5.861   4.841 -0.1555 -0.6217 -1.3110
 1494WAT     H2 6683   0.952   5.734   4.804  1.4809 -0.2779 -0.9192
 1494WAT    EPW 6684   0.955   5.794   4.854  0.6002  0.2510  0.6468
 1495WAT      O 6685   2.941   1.863   4.564 -0.0449  0.2523  0.0616
 1495WAT     H1 6686   2.970   1.831   4.640 -0.2801  0.6691  0.3264
 1495WAT     H2 6687   3.005   1.917   4.539 -1.4870  2.9158  1.7390
 1495WAT    EPW 6688   2.955   1.866   4.572  0.0681 -0.2252  0.3410
 1496WAT      O 6689   5.794   1.459   6.490 -0.0555  0.2960 -0.4521
 1496WAT     H1 6690   5.859   1.514   6.507 -0.8563  1.2943 -0.5648
 1496WAT     H2 6691   5.833   1.381   6.492  0.8045  0.6989  1.3700
 1496WAT    EPW 6692   5.809   1.455   6.493 -0.6672  0.2202  0.4916
 1497WAT      O 6693   6.633   1.890   7.536  0.5481 -0.4073 -0.3865
 1497WAT     H1 6694   6.688   1.843   7.585 -0.1922 -0.0858  0.7781
 1497WAT     H2 6695   6.564   1.838   7.529  0.4841 -0.2750 -0.7348
 1497WAT    EPW 6696   6.631   1.875   7.542  0.3019  0.0930  0.1367
 1498WAT      O 6697   4.512   5.696   4.383 -0.0701 -0.3700 -0.1395
 1498WAT     H1 6698   4.483   5.690   4.301 -0.1751  0.4057 -0.1684
 1498WAT     H2 6699   4.577   5.639   4.386 -0.8408 -1.2979 -0.4132
 1498WAT    EPW 6700   4.517   5.687   4.371 -0.2660  0.6789 -0.1914
 1499WAT      O 6701   4.682   4.730   5.719  0.4894  0.0191 -0.3322
 1499WAT     H1 6702   4.612   4.748   5.769  1.8532  1.0207  1.3365
 1499WAT     H2 6703   4.660   4.656   5.679 -2.6032  1.6375 -2.0262
 1499WAT    EPW 6704   4.668   4.722   5.721 -0.2653  0.6637 -1.1727
 1500WAT      O 6705   5.753   4.313   6.309  0.4001  0.2458 -0.1155
 1500WAT     H1 6706   5.828   4.296   6.268  1.0773 -0.4157  1.3420
 1500WAT     H2 6707   5.756   4.399   6.323  2.2850 -0.1301  2.4531
 1500WAT    EPW 6708   5.764   4.323   6.305  0.1305 -0.0220 -0.2448
 1501WAT      O 6709   0.539   7.418   2.990  0.1322  0.2433  0.4013
 1501WAT     H1 6710   0.604   7.390   3.041  0.5346  0.5877  0.0845
 1501WAT     H2 6711   0.526   7.500   3.018  0.2889  0.3996  0.0250
 1501WAT    EPW 6712   0.547   7.426   3.002  0.3398 -0.5963  0.0011
 1502WAT      O 6713   6.900   0.154   3.768  0.2911  0.3859 -0.4781
 1502WAT     H1 6714   6.905   0.104   3.697  0.1080 -2.7976  1.5838
 1502WAT     H2 6715   6.983   0.176   3.784  0.4767  0.0217 -0.9265
 1502WAT    EPW 6716   6.913   0.150   3.760  0.2935  0.3925 -0.3828
 1503WAT      O 6717   4.716   7.307   6.603 -0.2587 -0.3298  0.5048
 1503WAT     H1 6718   4.668   7.239   6.627  0.6325 -1.2299 -0.1784
 1503WAT     H2 6719   4.775   7.273   6.548  0.0649  1.0225 -0.0425
 1503WAT    EPW 6720   4.718   7.292   6.598 -0.2561  0.1123 -0.3944
 1504WAT      O 6721   0.460   7.083   4.638  0.8108  0.1036 -0.0112
 1504WAT     H1 6722   0.532   7.116   4.675  0.8646 -0.5031  0.4359
 1504WAT     H2 6723   0.460   7.000   4.664  0.4156 -0.1283 -0.7295
 1504WAT    EPW 6724   0.471   7.076   4.648  0.0628  0.2619  0.8341
 1505WAT      O 6725   6.376   1.295   1.233  0.6008  0.6045 -0.6670
 1505WAT     H1 6726   6.307   1.307   1.182  0.0540  0.0865 -0.0645
 1505WAT     H2 6727   6.390   1.209   1.229 -0.7256  0.1863  1.6087
 1505WAT    EPW 6728   6.368   1.284   1.225 -0.4895  0.3958 -0.0317
 1506WAT      O 6729   2.255   5.597   4.318 -0.1863  0.2550  0.3652
 1506WAT     H1 6730   2.190   5.646   4.286  0.5345  1.8212  1.1487
 1506WAT     H2 6731   2.213   5.529   4.354 -1.5937  1.8812  2.0535
 1506WAT    EPW 6732   2.239   5.594   4.319  0.2050 -0.1076  0.2823
 1507WAT      O 6733   1.445   2.324   3.985  0.3491 -0.5315 -0.0534
 1507WAT     H1 6734   1.414   2.399   3.954  0.2215 -0.7289 -0.4130
 1507WAT     H2 6735   1.388   2.264   3.955  0.1743 -0.7179  0.6361
 1507WAT    EPW 6736   1.432   2.326   3.976  0.0558  0.4265 -0.0528
 1508WAT      O 6737   6.940   4.020   3.719 -0.4859  0.1175 -0.6058
 1508WAT     H1 6738   6.948   3.961   3.656  0.4952 -0.6705  0.2137
 1508WAT     H2 6739   6.988   4.088   3.691 -0.3720 -0.0722 -0.8677
 1508WAT    EPW 6740   6.948   4.022   3.706  0.6022 -0.1844 -0.4864
 1509WAT      O 6741   1.637   0.484   1.632 -0.0570 -0.3394  0.4572
 1509WAT     H1 6742   1.675   0.524   1.700 -1.8950  0.7981  0.8750
 1509WAT     H2 6743   1.585   0.545   1.598 -0.1976 -1.3063 -1.1717
 1509WAT    EPW 6744   1.635   0.499   1.637  0.0614  0.0010  0.2428
 1510WAT      O 6745   3.805   2.943   7.389  1.0763 -0.2997 -0.6971
 1510WAT     H1 6746   3.795   3.019   7.431  0.2079 -1.3406  1.0806
 1510WAT     H2 6747   3.885   2.918   7.411 -0.0599 -1.8248  2.2316
 1510WAT    EPW 6748   3.815   2.951   7.399  0.2394  0.0085  0.5611
 1511WAT      O 6749   1.615   0.261   0.653 -0.0106  0.0407 -1.0052
 1511WAT     H1 6750   1.625   0.348   0.654 -1.4622  0.2913 -2.7315
 1511WAT     H2 6751   1.689   0.232   0.618 -0.6151  0.9038 -3.2325
 1511WAT    EPW 6752   1.627   0.270   0.648 -0.2173  0.1165 -0.2049
 1512WAT      O 6753   2.742   5.372   5.856 -0.3447 -0.4658  0.3717
 1512WAT     H1 6754   2.776   5.387   5.935 -0.6232 -1.7819  0.7642
 1512WAT     H2 6755   2.693   5.443   5.841 -2.9287 -1.5455  2.8220
 1512WAT    EPW 6756   2.740   5.385   5.865  0.3538  0.3221 -0.3690
 1513WAT      O 6757   4.887   0.090   2.647  0.8519 -0.1981 -0.3745
 1513WAT     H1 6758   4.952   0.103   2.703 -1.7631  2.2886  2.4593
 1513WAT     H2 6759   4.843   0.023   2.681  1.4497 -1.4472 -1.9134
 1513WAT    EPW 6760   4.890   0.082   2.660 -0.0977 -0.5969  0.4528
 1514WAT      O 6761   1.061   4.373   6.130 -0.1179  0.2511  0.5283
 1514WAT     H1 6762   1.015   4.447   6.127 -0.9625 -0.0855  2.8700
 1514WAT     H2 6763   0.999   4.311   6.133  0.4715 -0.2957  2.4131
 1514WAT    EPW 6764   1.045   4.375   6.130  0.1907  0.1940 -0.2610
 1515WAT      O 6765   4.805   2.227   5.401 -0.1016  0.9909  0.5065
 1515WAT     H1 6766   4.886   2.193   5.407 -0.0660  1.1028  0.6910
 1515WAT     H2 6767   4.788   2.251   5.483 -1.9076 -2.5864  1.3684
 1515WAT    EPW 6768   4.815   2.225   5.414  0.5817  0.6275  0.2319
 1516WAT      O 6769   1.877   4.413   4.796  0.2834 -0.4781  0.2339
 1516WAT     H1 6770   1.864   4.340   4.841  2.7252 -2.1738 -1.5206
 1516WAT     H2 6771   1.943   4.452   4.838  1.0722 -0.9272 -0.5535
 1516WAT    EPW 6772   1.885   4.408   4.809  0.1117  0.3454 -0.0246
 1517WAT      O 6773   2.063   5.629   4.697 -0.0232  0.9137 -0.5143
 1517WAT     H1 6774   2.017   5.612   4.769  0.4942 -1.0346 -0.5852
 1517WAT     H2 6775   2.145   5.630   4.724  0.0908  1.4676 -0.8672
 1517WAT    EPW 6776   2.068   5.626   4.712 -0.1644  0.4555  0.1934
 1518WAT      O 6777   3.967   3.577   4.793  0.5214 -0.3401 -0.2093
 1518WAT     H1 6778   4.046   3.556   4.822  0.3279 -0.4117  0.2740
 1518WAT     H2 6779   3.943   3.643   4.845  0.9759  0.8714 -1.4723
 1518WAT    EPW 6780   3.975   3.584   4.805 -0.6961 -0.1648  0.0313
 1519WAT      O 6781   6.681   4.573   6.499  0.1884 -0.1165  0.2878
 1519WAT     H1 6782   6.734   4.612   6.555 -0.1742  0.5555  0.1707
 1519WAT     H2 6783   6.657   4.500   6.540 -0.0223  0.3360  0.9894
 1519WAT    EPW 6784   6.685   4.568   6.513 -0.5466  0.0741 -0.3262
 1520WAT      O 6785   2.893   0.408   6.528  0.2366  0.1766 -0.3187
 1520WAT     H1 6786   2.927   0.435   6.453  0.5990  2.2448  0.5286
 1520WAT     H2 6787   2.823   0.460   6.539  0.4018  0.1702  0.9263
 1520WAT    EPW 6788   2.887   0.420   6.519  0.0780 -0.3013  0.1957
 1521WAT      O 6789   3.687   1.789   3.151  0.1583 -0.2528  0.5670
 1521WAT     H1 6790   3.640   1.785   3.224  0.3876 -1.3745  0.6659
 1521WAT     H2 6791   3.630   1.771   3.088  0.4456 -1.7261  0.6966
 1521WAT    EPW 6792   3.672   1.786   3.153  0.0595 -0.2433 -0.2274
 1522WAT      O 6793   1.242   7.214   1.398  0.2289  0.4814  0.3728
 1522WAT     H1 6794   1.160   7.228   1.371  0.1063 -0.4130  0.2451
 1522WAT     H2 6795   1.254   7.272   1.461 -1.0091 -0.3147  1.3823
 1522WAT    EPW 6796   1.232   7.224   1.403  0.5162  0.0798 -0.4004
 1523WAT      O 6797   7.258   0.390   4.814 -0.4192 -0.1470 -0.1437
 1523WAT     H1 6798   7.189   0.442   4.817 -0.9414 -0.7405 -1.2177
 1523WAT     H2 6799   7.267   0.372   4.729  2.3213  1.5465 -0.3452
 1523WAT    EPW 6800   7.249   0.395   4.802 -0.0357 -0.1259  0.5917
 1524WAT      O 6801   0.210   6.673   6.757  0.0596 -0.1453 -0.2046
 1524WAT     H1 6802   0.196   6.641   6.677 -1.0532  0.3284 -0.2270
 1524WAT     H2 6803   0.283   6.719   6.749  0.1607 -0.4086 -0.8530
 1524WAT    EPW 6804   0.218   6.675   6.744 -0.3435  0.5814 -0.2479
 1525WAT      O 6805   5.116   2.032   2.229  0.0250  0.3870  0.3378
 1525WAT     H1 6806   5.052   2.087   2.208  0.7313  0.8492 -0.6920
 1525WAT     H2 6807   5.074   1.964   2.264 -0.8493  1.7173  2.0250
 1525WAT    EPW 6808   5.101   2.031   2.231  0.2191  0.2423 -0.6927
 1526WAT      O 6809   7.374   0.372   5.377  0.0293  0.0062 -0.0027
 1526WAT     H1 6810   7.301   0.393   5.419  0.7955  0.6431  1.0611
 1526WAT     H2 6811   7.346   0.326   5.309 -1.3238 -0.2426  0.6861
 1526WAT    EPW 6812   7.359   0.368   5.373  0.7284  0.0075  0.0566
 1527WAT      O 6813   2.435   0.672   2.247  0.1945  0.4133  0.0615
 1527WAT     H1 6814   2.356   0.640   2.232  0.3179  0.0780  0.1279
 1527WAT     H2 6815   2.420   0.741   2.298  0.0330 -0.2529  0.9241
 1527WAT    EPW 6816   2.421   0.677   2.252 -0.2670  0.4441  0.0719
 1528WAT      O 6817   0.674   5.421   4.335  0.2843  0.2178 -0.5820
 1528WAT     H1 6818   0.612   5.455   4.284 -0.3727  1.5103  0.9672
 1528WAT     H2 6819   0.630   5.370   4.390  0.6931  0.4541 -0.0208
 1528WAT    EPW 6820   0.658   5.418   4.336  0.0468  0.0381 -0.3190
 1529WAT      O 6821   5.335   4.120   1.786  0.0741  0.0177 -0.0735
 1529WAT     H1 6822   5.293   4.045   1.770 -0.5697 -0.0580  1.7388
 1529WAT     H2 6823   5.372   4.107   1.864 -3.2030  2.7679  2.2641
 1529WAT    EPW 6824   5.334   4.107   1.795  0.2150  0.3556 -0.1445
 1530WAT      O 6825   3.895   1.987   2.087 -0.0692 -0.0988 -0.1570
 1530WAT     H1 6826   3.920   2.050   2.033 -0.6023  1.1842  1.0441
 1530WAT     H2 6827   3.947   1.996   2.155 -1.9650  0.9185  1.2509
 1530WAT    EPW 6828   3.906   1.997   2.089  0.1930  0.1087  0.3765
 1531WAT      O 6829   0.635   0.199   6.502 -0.1469  0.1639 -0.0957
 1531WAT     H1 6830   0.574   0.172   6.558  0.1072 -0.2376 -0.0168
 1531WAT     H2 6831   0.614   0.158   6.428 -0.1488  0.2584 -0.1478
 1531WAT    EPW 6832   0.623   0.189   6.499 -0.3281  0.4899 -0.2876
 1532WAT      O 6833   4.892   3.738   5.056 -0.0150  0.4366 -1.2467
 1532WAT     H1 6834   4.887   3.706   5.137 -0.6160  0.6655 -1.1893
 1532WAT     H2 6835   4.976   3.730   5.036  0.1329  0.3576 -0.6082
 1532WAT    EPW 6836   4.903   3.732   5.065 -0.8360 -0.1523 -0.0101
 1533WAT      O 6837   7.344   3.012   5.674 -0.3259  0.1181  0.0735
 1533WAT     H1 6838   7.399   3.053   5.620 -1.0326  1.6747  0.4644
 1533WAT     H2 6839   7.394   2.955   5.717  0.3902 -0.6112 -1.6627
 1533WAT    EPW 6840   7.359   3.010   5.672  0.2546 -0.2774 -0.2549
 1534WAT      O 6841   4.328   2.607   7.391  0.0557  0.8654 -0.1493
 1534WAT     H1 6842   4.270   2.615   7.327  0.2129  1.8819 -0.1802
 1534WAT     H2 6843   4.392   2.661   7.367  1.6057 -1.1039 -0.7345
 1534WAT    EPW 6844   4.329   2.616   7.378  0.5644  0.6836 -0.0211
 1535WAT      O 6845   0.478   0.066   5.650 -0.9282  0.0558 -0.1043
 1535WAT     H1 6846   0.507   0.054   5.731 -1.5902  0.1733  0.1554
 1535WAT     H2 6847   0.499  -0.008   5.609  1.6864  0.9568 -0.5236
 1535WAT    EPW 6848   0.485   0.053   5.656 -0.2529  0.9173 -0.6705
 1536WAT      O 6849   1.889   2.994   4.570 -0.3917  0.2106  0.0398
 1536WAT     H1 6850   1.917   3.050   4.631  0.1022  3.3169 -2.7743
 1536WAT     H2 6851   1.957   2.989   4.514 -0.6863 -2.7597 -0.2452
 1536WAT    EPW 6852   1.903   3.001   4.571  0.7785  0.3468  0.3769
 1537WAT      O 6853   0.327   3.556   6.540 -0.3210  0.0050 -0.2774
 1537WAT     H1 6854   0.304   3.638   6.522 -0.8448 -0.2119 -0.6163
 1537WAT     H2 6855   0.404   3.547   6.501 -0.0117  0.4950  0.2015
 1537WAT    EPW 6856   0.335   3.567   6.532 -0.5807 -0.4350 -0.2099
 1538WAT      O 6857   0.306   1.384   4.778 -0.0871  0.1304  0.9070
 1538WAT     H1 6858   0.366   1.405   4.838  1.0481 -0.3235 -0.0250
 1538WAT     H2 6859   0.262   1.319   4.815  1.4331 -1.0238  0.8030
 1538WAT    EPW 6860   0.309   1.378   4.793  0.3050 -0.0198  0.0153
 1539WAT      O 6861   7.345   4.048   5.018  0.7037 -0.6219  0.0432
 1539WAT     H1 6862   7.365   4.077   4.939 -2.2114 -3.1127 -1.8437
 1539WAT     H2 6863   7.311   4.118   5.058 -0.6979  0.0300 -2.1381
 1539WAT    EPW 6864   7.343   4.063   5.012  0.3645 -0.2146 -0.2660
 1540WAT      O 6865   6.021   2.593   1.042 -0.4826  0.1468  0.2152
 1540WAT     H1 6866   6.002   2.677   1.026  0.2534 -0.0724 -2.1131
 1540WAT     H2 6867   6.045   2.594   1.126 -3.0455  1.7647  1.0742
 1540WAT    EPW 6868   6.022   2.606   1.052  0.2195  0.4920  0.1958
 1541WAT      O 6869   6.072   6.594   6.129 -0.6872  0.0568 -0.2172
 1541WAT     H1 6870   5.995   6.601   6.168 -0.2113 -0.0501  0.7596
 1541WAT     H2 6871   6.120   6.657   6.164 -0.0040 -0.5479 -0.0209
 1541WAT    EPW 6872   6.068   6.604   6.140  0.2226 -0.6010  0.2513
 1542WAT      O 6873   7.059   2.208   5.331  0.3675  0.1187  0.1054
 1542WAT     H1 6874   7.138   2.170   5.327  1.4367  2.2066  0.0495
 1542WAT     H2 6875   7.004   2.140   5.328  2.1552 -1.4906  1.0711
 1542WAT    EPW 6876   7.063   2.192   5.330 -0.1535  0.2266 -0.1836
 1543WAT      O 6877   5.836  -0.026   2.690  0.7135  0.4380  0.0379
 1543WAT     H1 6878   5.776  -0.009   2.751 -0.1900  2.7082 -1.3851
 1543WAT     H2 6879   5.849   0.051   2.651  1.3444 -0.8723 -2.5646
 1543WAT    EPW 6880   5.829  -0.012   2.694 -0.2438  0.1062  0.1379
 1544WAT      O 6881   5.604   3.589   5.792  0.4955  0.5523 -0.8989
 1544WAT     H1 6882   5.656   3.613   5.727  3.2041 -0.8776  0.5745
 1544WAT     H2 6883   5.649   3.527   5.834 -2.6696 -1.3208  0.1820
 1544WAT    EPW 6884   5.618   3.583   5.788 -0.0642  0.4614 -0.0402
 1545WAT      O 6885   7.525   6.999   4.781 -0.6389  0.0862  0.0207
 1545WAT     H1 6886   7.453   6.950   4.780 -0.3158 -0.3908 -0.1830
 1545WAT     H2 6887   7.583   6.950   4.739 -0.5017  0.9324 -0.8142
 1545WAT    EPW 6888   7.523   6.985   4.774  0.3518  0.4038  0.0527
 1546WAT      O 6889   6.328   3.006   5.949  0.0943  0.3344 -0.2585
 1546WAT     H1 6890   6.390   3.004   6.011  0.4325  2.2383 -0.4665
 1546WAT     H2 6891   6.374   2.998   5.875 -0.1328 -0.1975 -0.3471
 1546WAT    EPW 6892   6.344   3.004   5.947  0.0301 -0.4795 -0.3251
 1547WAT      O 6893   2.456   2.441   4.749  0.1578  0.3927  0.8592
 1547WAT     H1 6894   2.370   2.449   4.759  0.2290  1.3923  0.7659
 1547WAT     H2 6895   2.465   2.427   4.663  0.0686 -0.0661  0.9230
 1547WAT    EPW 6896   2.445   2.440   4.738  0.2298 -0.0255  0.4418
 1548WAT      O 6897   7.228   6.661   5.937 -0.1692 -0.7835  0.0356
 1548WAT     H1 6898   7.251   6.730   5.889  0.4982 -1.3218 -0.4455
 1548WAT     H2 6899   7.141   6.658   5.928 -0.4518  1.0679  1.5604
 1548WAT    EPW 6900   7.219   6.671   5.928 -1.1959  0.4156 -0.1038
 1549WAT      O 6901   7.610   3.451   4.436  0.7935  0.1392  0.2579
 1549WAT     H1 6902   7.599   3.533   4.407 -0.2556 -0.4866 -1.2439
 1549WAT     H2 6903   7.636   3.462   4.518 -2.1490  1.9621  1.1054
 1549WAT    EPW 6904   7.612   3.465   4.444  0.0432 -0.1274  0.3873
 1550WAT      O 6905   6.775   2.547   1.297 -0.4614  0.1941  0.1622
 1550WAT     H1 6906   6.710   2.537   1.240  0.2920  1.5505 -0.9890
 1550WAT     H2 6907   6.735   2.573   1.370 -1.1422  2.1540 -0.8566
 1550WAT    EPW 6908   6.760   2.549   1.299 -0.3297  0.0853  0.4744
 1551WAT      O 6909   3.646   7.100   4.125 -0.9366 -0.3051  0.6977
 1551WAT     H1 6910   3.701   7.034   4.140 -0.3686  0.4335  2.1206
 1551WAT     H2 6911   3.696   7.171   4.137 -2.0873  0.3798  1.5878
 1551WAT    EPW 6912   3.662   7.101   4.129  0.0896 -0.3227 -0.2301
 1552WAT      O 6913   6.209   2.347   1.374  0.6432  0.2368 -0.7559
 1552WAT     H1 6914   6.217   2.339   1.460  0.0602  0.3577 -0.6887
 1552WAT     H2 6915   6.291   2.343   1.345  1.0088  1.9494 -0.0541
 1552WAT    EPW 6916   6.222   2.345   1.382 -0.5708 -0.1082 -0.0544
 1553WAT      O 6917   6.182   2.532   0.828 -0.1203  0.4068  0.0202
 1553WAT     H1 6918   6.239   2.598   0.817 -0.2554  0.5530  0.1863
 1553WAT     H2 6919   6.140   2.553   0.902 -0.6333  0.4856 -0.2865
 1553WAT    EPW 6920   6.184   2.545   0.837 -0.2816 -0.3585  0.0979
 1554WAT      O 6921   3.960   3.543   2.685 -0.3742 -0.3823 -0.5692
 1554WAT     H1 6922   3.956   3.548   2.772  0.8385  0.2320 -0.5275
 1554WAT     H2 6923   4.034   3.499   2.671  0.5559  1.2858 -1.2766
 1554WAT    EPW 6924   3.970   3.537   2.696 -0.5095 -0.2280  0.2721
 1555WAT      O 6925   1.240   3.887   0.485 -0.2450 -0.1357 -0.2831
 1555WAT     H1 6926   1.163   3.873   0.448 -0.7851  0.8895  0.3960
 1555WAT     H2 6927   1.231   3.853   0.565  0.7267 -1.8626 -0.8747
 1555WAT    EPW 6928   1.228   3.880   0.491  0.3885 -0.1620  0.8398
 1556WAT      O 6929   1.245   1.527   3.604  0.5412  0.1234  0.0287
 1556WAT     H1 6930   1.314   1.474   3.607  1.0043  0.5520 -1.7011
 1556WAT     H2 6931   1.179   1.474   3.585  0.6192 -0.1165  0.4172
 1556WAT    EPW 6932   1.245   1.511   3.602  0.0761 -0.0357  0.6221
 1557WAT      O 6933   6.047   3.146   6.854  0.1743 -0.4587  0.5829
 1557WAT     H1 6934   6.114   3.095   6.831  0.8272  0.3188  0.6832
 1557WAT     H2 6935   5.980   3.091   6.863  0.4946 -1.0888 -0.7550
 1557WAT    EPW 6936   6.047   3.130   6.852 -0.3904 -0.0808 -0.3570
 1558WAT      O 6937   2.170   4.022   5.294  0.2478  0.0005  0.1596
 1558WAT     H1 6938   2.238   4.017   5.348 -0.0946  0.7600  0.6743
 1558WAT     H2 6939   2.102   3.999   5.343 -0.0472  0.5403  0.0157
 1558WAT    EPW 6940   2.170   4.018   5.309  0.4449  0.4288 -0.3755
 1559WAT      O 6941   3.640   7.467   4.476 -0.1126  0.2090  0.0071
 1559WAT     H1 6942   3.635   7.412   4.408 -0.0939  0.3797 -0.1313
 1559WAT     H2 6943   3.558   7.493   4.487 -0.1413  0.0577  0.1512
 1559WAT    EPW 6944   3.627   7.463   4.468  0.2962 -0.1853  0.0610
 1560WAT      O 6945   2.209   5.729   6.773  0.1314 -0.8918  0.3125
 1560WAT     H1 6946   2.282   5.682   6.759  0.5323 -0.1315 -0.2343
 1560WAT     H2 6947   2.236   5.811   6.766 -0.2810 -0.4993  2.6147
 1560WAT    EPW 6948   2.224   5.734   6.770  0.1795  0.1078  0.2455
 1561WAT      O 6949   7.103   3.196   4.497  0.2136 -0.2036  0.5627
 1561WAT     H1 6950   7.175   3.244   4.509  0.0814 -0.0702  0.8641
 1561WAT     H2 6951   7.042   3.242   4.540 -0.2274  0.1135 -0.3851
 1561WAT    EPW 6952   7.105   3.210   4.505 -0.0819 -0.0171  0.2517
 1562WAT      O 6953   1.922   7.486   0.947  0.8785  0.3133  0.6489
 1562WAT     H1 6954   1.996   7.449   0.918 -0.1095 -0.4104 -1.0811
 1562WAT     H2 6955   1.947   7.565   0.973  2.3777 -0.1792  0.7993
 1562WAT    EPW 6956   1.937   7.492   0.947 -0.4081  1.0225 -0.0531
 1563WAT      O 6957   2.939   2.840   2.175  0.4491 -0.1366 -0.1638
 1563WAT     H1 6958   2.880   2.903   2.165 -0.2098 -0.7176 -0.0637
 1563WAT     H2 6959   2.990   2.847   2.105 -0.1055  0.0025 -0.5610
 1563WAT    EPW 6960   2.938   2.850   2.163 -0.6179 -0.0206 -0.5017
 1564WAT      O 6961   2.628   0.881   1.774 -0.1269  0.9662  0.1163
 1564WAT     H1 6962   2.579   0.850   1.709  0.2764 -0.0349  0.2857
 1564WAT     H2 6963   2.616   0.825   1.839  2.1770 -0.0469 -0.2179
 1564WAT    EPW 6964   2.619   0.868   1.774  0.3590  0.2988  0.2344
 1565WAT      O 6965   0.095   1.458   0.388 -0.3059  0.0345 -0.2708
 1565WAT     H1 6966   0.020   1.426   0.358  0.7390 -0.2507 -2.9375
 1565WAT     H2 6967   0.079   1.543   0.396 -0.7496  0.1064 -1.6045
 1565WAT    EPW 6968   0.082   1.466   0.385  0.4858  0.5577 -0.0128
 1566WAT      O 6969   1.325   6.278   7.265 -0.1705 -0.6034  0.4014
 1566WAT     H1 6970   1.324   6.192   7.249  0.2557 -0.2465 -1.8601
 1566WAT     H2 6971   1.408   6.293   7.290  0.8688 -0.3743 -2.7735
 1566WAT    EPW 6972   1.337   6.267   7.266  0.7999 -0.4317  0.1212
 1567WAT      O 6973   7.539   4.967   4.148  0.5068 -0.5178 -0.3273
 1567WAT     H1 6974   7.622   4.978   4.121  0.3965 -0.7006 -0.7436
 1567WAT     H2 6975   7.546   4.912   4.215  0.8426  0.3751  0.3844
 1567WAT    EPW 6976   7.552   4.961   4.154  0.3345 -0.0197 -1.1490
 1568WAT      O 6977   5.717   7.328   6.724  0.0318 -0.5212 -0.3289
 1568WAT     H1 6978   5.639   7.359   6.700 -0.2471  0.6505  1.8754
 1568WAT     H2 6979   5.773   7.373   6.675 -0.5790  0.4802 -0.1456
 1568WAT    EPW 6980   5.713   7.339   6.713 -0.0954  0.5700  0.6656
 1569WAT      O 6981   2.666   3.912   5.912 -0.1239  0.1274 -0.5076
 1569WAT     H1 6982   2.644   3.939   5.992  0.8679 -1.8521  0.4885
 1569WAT     H2 6983   2.747   3.941   5.901 -0.0208 -0.1692 -0.5342
 1569WAT    EPW 6984   2.675   3.920   5.922  0.1214 -0.1592  0.2042
 1570WAT      O 6985   5.762   0.424   2.648  0.4963 -0.9869  0.1258
 1570WAT     H1 6986   5.784   0.479   2.585  1.2549 -2.2565 -0.7777
 1570WAT     H2 6987   5.691   0.460   2.684  0.3615  0.0365 -1.1042
 1570WAT    EPW 6988   5.754   0.437   2.644 -0.0957 -0.2540  0.6746
 1571WAT      O 6989   7.126   4.614   7.226  0.0016  0.5560  0.6470
 1571WAT     H1 6990   7.158   4.564   7.290 -1.8550 -0.4456  0.8702
 1571WAT     H2 6991   7.134   4.695   7.257 -1.2539  0.0693  2.3625
 1571WAT    EPW 6992   7.132   4.618   7.240  0.6809  0.0676 -0.1237
 1572WAT      O 6993   6.355   0.048   1.004 -0.3895  0.1301  0.0184
 1572WAT     H1 6994   6.440   0.064   1.014 -0.5968  0.7203  0.8884
 1572WAT     H2 6995   6.332   0.100   0.937 -0.2560  0.6420  0.3682
 1572WAT    EPW 6996   6.364   0.058   0.995  0.0993 -0.1299 -0.1032
 1573WAT      O 6997   1.174   2.445   1.607 -0.5860 -0.3509  0.3779
 1573WAT     H1 6998   1.261   2.457   1.610 -0.5769 -0.3221  0.0051
 1573WAT     H2 6999   1.165   2.375   1.556 -0.7921 -0.2895  0.3308
 1573WAT    EPW 7000   1.186   2.437   1.600  0.9242 -0.2858 -0.0976
 1574WAT      O 7001   5.522   6.553   2.373  0.3591 -0.1561  0.5379
 1574WAT     H1 7002   5.563   6.612   2.423 -0.5035  2.2462 -1.3443
 1574WAT     H2 7003   5.461   6.520   2.426 -0.9431  2.7466  1.0456
 1574WAT    EPW 7004   5.519   6.557   2.388  0.0482  0.0261 -0.1665
 1575WAT      O 7005   7.003   2.730   7.386 -0.4216  0.2046 -0.4599
 1575WAT     H1 7006   6.956   2.675   7.434  0.5908  0.1629  0.5042
 1575WAT     H2 7007   6.991   2.807   7.425  0.3505  0.1823 -0.1635
 1575WAT    EPW 7008   6.994   2.734   7.399  0.3704  0.2576  0.5398
 1576WAT      O 7009   2.584   4.194   4.804 -0.3786 -0.0884 -0.2040
 1576WAT     H1 7010   2.502   4.177   4.827 -0.9191  0.9462 -1.2632
 1576WAT     H2 7011   2.619   4.115   4.793 -1.2553 -0.5398  0.1821
 1576WAT    EPW 7012   2.577   4.180   4.806 -0.1395 -0.2069  1.0935
 1577WAT      O 7013   6.588   2.101   3.099 -0.0273  0.1551  0.0891
 1577WAT     H1 7014   6.518   2.119   3.050  0.7691  3.3494 -0.0965
 1577WAT     H2 7015   6.638   2.053   3.047 -0.0967  1.7642 -1.5472
 1577WAT    EPW 7016   6.585   2.097   3.084 -0.0253  0.1961  0.6090
 1578WAT      O 7017   4.513   6.459   1.609 -0.2626  0.0941  0.0035
 1578WAT     H1 7018   4.594   6.430   1.626 -0.2294  0.1144 -0.1178
 1578WAT     H2 7019   4.525   6.545   1.596 -0.2932  0.0832 -0.0927
 1578WAT    EPW 7020   4.527   6.468   1.610 -0.2166  0.2154  0.3864
 1579WAT      O 7021   6.549   4.048   2.442  0.0842  0.3105 -0.3546
 1579WAT     H1 7022   6.594   4.017   2.509 -1.2581  0.2072  0.5370
 1579WAT     H2 7023   6.611   4.079   2.388  1.2221 -0.2715  0.5714
 1579WAT    EPW 7024   6.565   4.048   2.444 -0.4909  0.6516  0.1162
 1580WAT      O 7025   0.460   0.059   2.540 -0.4940 -0.4674  0.5025
 1580WAT     H1 7026   0.476   0.095   2.462  0.3922 -1.8420  0.0077
 1580WAT     H2 7027   0.520   0.095   2.592  0.3884 -1.1634  0.0114
 1580WAT    EPW 7028   0.472   0.070   2.536 -0.6815 -0.1553  0.0237
 1581WAT      O 7029   5.871   3.857   2.444  0.8394 -0.3368  0.4041
 1581WAT     H1 7030   5.889   3.897   2.519 -0.5709  0.9732  0.0971
 1581WAT     H2 7031   5.785   3.843   2.448  0.2988  1.6831 -1.7770
 1581WAT    EPW 7032   5.861   3.861   2.456  0.6043 -0.1342 -0.1133
 1582WAT      O 7033   0.119   0.377   7.452 -0.4933  0.3824  0.3816
 1582WAT     H1 7034   0.145   0.376   7.536  1.1088  0.9702 -0.0749
 1582WAT     H2 7035   0.044   0.421   7.454 -0.3651  0.5794  1.4826
 1582WAT    EPW 7036   0.112   0.383   7.465  0.1846 -0.3625  0.4688
 1583WAT      O 7037   5.844   6.116   3.661 -0.1500 -0.2235 -0.0332
 1583WAT     H1 7038   5.776   6.065   3.642  1.6547 -2.1903 -1.7680
 1583WAT     H2 7039   5.863   6.095   3.744  0.4300 -2.3930 -0.6410
 1583WAT    EPW 7040   5.837   6.106   3.670  0.0479  0.0517  0.2408
 1584WAT      O 7041   1.396   1.213   2.543 -0.3837 -0.0102  0.4839
 1584WAT     H1 7042   1.367   1.155   2.485 -1.2004  0.7096  0.1527
 1584WAT     H2 7043   1.407   1.286   2.496 -0.4544  0.4092  1.1001
 1584WAT    EPW 7044   1.393   1.215   2.528  0.1781 -0.1352 -0.2638
 1585WAT      O 7045   0.008   7.323   4.296 -0.1599  0.5150  0.8495
 1585WAT     H1 7046   0.082   7.277   4.295  0.0669  0.7978 -1.1346
 1585WAT     H2 7047  -0.026   7.306   4.374  0.2102 -2.5298  0.4880
 1585WAT    EPW 7048   0.014   7.313   4.307  0.1634  0.0783 -0.4324
 1586WAT      O 7049   2.578   5.528   5.051 -0.3995 -0.5521 -0.4599
 1586WAT     H1 7050   2.640   5.555   5.107 -1.6281  2.4415 -0.3687
 1586WAT     H2 7051   2.621   5.520   4.976 -0.0302  3.5578 -0.9233
 1586WAT    EPW 7052   2.594   5.531   5.049 -0.0499  0.0398 -0.1078
 1587WAT      O 7053   5.136   2.408   2.846 -0.2756 -0.7037 -0.1457
 1587WAT     H1 7054   5.173   2.454   2.910 -0.4829 -1.4790  0.5484
 1587WAT     H2 7055   5.198   2.405   2.784 -0.4854  1.0268 -0.4847
 1587WAT    EPW 7056   5.151   2.415   2.846 -0.7187 -0.6793 -0.3669
 1588WAT      O 7057   1.030   3.781   1.436  0.0084 -0.0931 -0.2770
 1588WAT     H1 7058   1.091   3.842   1.423 -2.1020  2.0925 -0.6338
 1588WAT     H2 7059   1.002   3.762   1.356  0.1896 -1.0993 -0.1210
 1588WAT    EPW 7060   1.035   3.787   1.422 -0.0805  0.2566 -0.2995
 1589WAT      O 7061   5.897   1.892   5.944 -0.3035  0.0935  0.8843
 1589WAT     H1 7062   5.882   1.914   5.861  2.3383  0.3743  0.3860
 1589WAT     H2 7063   5.879   1.806   5.946 -0.3859  0.0826  0.0254
 1589WAT    EPW 7064   5.892   1.882   5.932  0.3864  0.4500  0.0430
 1590WAT      O 7065   4.614   5.081   4.118  0.3300  0.4013  0.1963
 1590WAT     H1 7066   4.655   5.008   4.093  0.8261  0.3962  0.9547
 1590WAT     H2 7067   4.542   5.052   4.157  0.6177  0.2979  0.6596
 1590WAT    EPW 7068   4.609   5.066   4.120 -0.3189  0.3434  0.4177
 1591WAT      O 7069   2.312   3.036   3.781  0.7849  0.0124  0.3729
 1591WAT     H1 7070   2.386   3.081   3.767  0.2996  1.4683  2.1040
 1591WAT     H2 7071   2.264   3.092   3.828 -0.3374 -1.9170  1.6155
 1591WAT    EPW 7072   2.316   3.051   3.786  0.1505 -0.3922  0.0936
 1592WAT      O 7073   2.050   3.957   5.712  0.0199  0.1786  0.1704
 1592WAT     H1 7074   2.109   4.003   5.668 -0.1169  1.0717  0.8936
 1592WAT     H2 7075   2.099   3.908   5.765  0.1656 -0.5454 -0.6112
 1592WAT    EPW 7076   2.066   3.956   5.713  0.1354  0.5589 -0.0961
 1593WAT      O 7077   5.358   7.458   3.272 -0.5850  0.3967 -0.2401
 1593WAT     H1 7078   5.291   7.415   3.310 -2.4466  2.2587 -1.2206
 1593WAT     H2 7079   5.357   7.535   3.312 -0.9773  1.4980 -2.2582
 1593WAT    EPW 7080   5.348   7.463   3.284  0.6104 -0.2632 -0.1380
 1594WAT      O 7081   5.704   3.947   7.410  0.1466 -0.3052 -0.3119
 1594WAT     H1 7082   5.723   3.990   7.484  0.0452  0.2696 -0.6151
 1594WAT     H2 7083   5.777   3.956   7.363 -0.7697  1.8468 -1.4546
 1594WAT    EPW 7084   5.718   3.954   7.414 -0.0248  0.5418 -0.4015
 1595WAT      O 7085   7.068   1.490   5.435 -0.1884 -0.4138  0.3724
 1595WAT     H1 7086   7.140   1.465   5.391 -0.3196 -0.1422 -0.0039
 1595WAT     H2 7087   7.099   1.514   5.513  0.4898  2.0236 -0.5484
 1595WAT    EPW 7088   7.083   1.490   5.440  0.3996  0.0635  0.0765
 1596WAT      O 7089   1.232   5.890   4.119  0.5610 -0.3769 -0.1974
 1596WAT     H1 7090   1.317   5.889   4.098  0.6254 -1.3571  0.0760
 1596WAT     H2 7091   1.232   5.881   4.206  0.2356  1.9819  0.1282
 1596WAT    EPW 7092   1.245   5.889   4.129  0.0078 -0.3346  0.2213
 1597WAT      O 7093   4.138   6.855   5.199  0.6339 -0.2951  0.6244
 1597WAT     H1 7094   4.080   6.895   5.148  1.0359 -0.5228 -0.0197
 1597WAT     H2 7095   4.147   6.776   5.162  1.5416 -0.1695  0.5689
 1597WAT    EPW 7096   4.130   6.849   5.186  0.2633 -0.4436 -0.4870
 1598WAT      O 7097   7.547   4.723   1.825 -0.0685  0.6108 -0.6964
 1598WAT     H1 7098   7.587   4.749   1.751  0.8279  0.5992 -0.2320
 1598WAT     H2 7099   7.463   4.724   1.804  0.0701  1.9783 -1.2993
 1598WAT    EPW 7100   7.541   4.727   1.811 -0.2986  0.0606  0.0510
 1599WAT      O 7101   6.770   6.535   4.907 -0.0590  0.0163 -0.1901
 1599WAT     H1 7102   6.747   6.451   4.912 -0.7158  0.2558  1.0572
 1599WAT     H2 7103   6.828   6.536   4.841 -0.9414 -1.2011 -1.0344
 1599WAT    EPW 7104   6.776   6.523   4.898  0.2492  0.1050 -0.1947
 1600WAT      O 7105   0.037   0.146   2.438 -0.0516  0.3270  0.7153
 1600WAT     H1 7106   0.009   0.222   2.406 -1.0364 -0.3474 -0.0771
 1600WAT     H2 7107   0.115   0.166   2.472 -0.7915  1.9413  1.5917
 1600WAT    EPW 7108   0.044   0.160   2.438 -0.7135  0.9874 -0.4765
 1601WAT      O 7109   4.951   4.091   3.138  0.0829  0.2328  0.2007
 1601WAT     H1 7110   5.008   4.068   3.199  1.4273 -0.2979 -1.1780
 1601WAT     H2 7111   4.877   4.050   3.162  0.9793 -1.1722  0.6956
 1601WAT    EPW 7112   4.948   4.081   3.150  0.4763 -0.0361  0.4691
 1602WAT      O 7113   1.110   1.483   6.769 -0.2553  0.5909  0.6461
 1602WAT     H1 7114   1.184   1.514   6.804 -0.4111  0.9990  0.6189
 1602WAT     H2 7115   1.066   1.555   6.748  0.5470  0.4013 -1.9892
 1602WAT    EPW 7116   1.115   1.498   6.771  0.4175  0.7438 -0.5611
 1603WAT      O 7117   1.627   3.297   7.072 -0.1338  0.1647  0.1585
 1603WAT     H1 7118   1.611   3.353   7.008 -0.7468 -1.2971 -1.0376
 1603WAT     H2 7119   1.626   3.219   7.031  0.3528 -0.7402  1.7891
 1603WAT    EPW 7120   1.625   3.294   7.056 -0.2324  0.2023  0.5137
 1604WAT      O 7121   2.942   2.432   1.383  0.4029 -0.3170  0.9832
 1604WAT     H1 7122   3.012   2.403   1.424 -0.9013 -1.4430  2.5294
 1604WAT     H2 7123   2.940   2.517   1.402  0.2902 -0.6569  2.6292
 1604WAT    EPW 7124   2.952   2.440   1.392 -0.1586 -0.5971 -0.4739
 1605WAT      O 7125   5.761   7.203   2.187  0.0431 -0.2929 -0.0840
 1605WAT     H1 7126   5.727   7.230   2.111  1.1450 -0.2178 -0.5712
 1605WAT     H2 7127   5.801   7.128   2.167  2.2504  0.8178 -0.1103
 1605WAT    EPW 7128   5.762   7.196   2.173 -0.0367  0.2744 -0.3170
 1606WAT      O 7129   3.137   7.216   4.387  0.0284  0.6680  0.2856
 1606WAT     H1 7130   3.150   7.130   4.390 -1.1436  0.4830  0.9017
 1606WAT     H2 7131   3.216   7.250   4.399  0.4920 -0.3215  0.0919
 1606WAT    EPW 7132   3.150   7.208   4.389  0.1865 -0.2099  0.0269
 1607WAT      O 7133   0.460   6.443   5.006 -0.1698 -0.1376  0.2766
 1607WAT     H1 7134   0.486   6.399   5.077  0.2632 -0.1182  0.1319
 1607WAT     H2 7135   0.534   6.455   4.961 -0.8765 -3.9797 -2.3939
 1607WAT    EPW 7136   0.475   6.438   5.010 -0.1442 -0.3107  0.0617
 1608WAT      O 7137   1.897   6.066   6.440 -0.1326  0.1770 -0.0532
 1608WAT     H1 7138   1.859   6.144   6.446 -1.1602 -0.2496 -0.7389
 1608WAT     H2 7139   1.918   6.047   6.523 -2.4483 -0.0353  0.5748
 1608WAT    EPW 7140   1.894   6.074   6.453 -0.0141 -0.2615 -0.6096
 1609WAT      O 7141   5.166   0.653   1.130 -1.1827  0.2557 -0.5381
 1609WAT     H1 7142   5.083   0.635   1.147 -0.7814 -1.0265  0.1237
 1609WAT     H2 7143   5.190   0.591   1.074 -0.4871  0.2376 -0.2297
 1609WAT    EPW 7144   5.157   0.641   1.124  0.5621  0.8203  0.0826
 1610WAT      O 7145   4.232   7.356   4.344  0.2333  0.2527  1.0737
 1610WAT     H1 7146   4.275   7.354   4.268 -2.9333  1.9706 -0.9902
 1610WAT     H2 7147   4.158   7.313   4.327 -1.3600  2.2247  2.4932
 1610WAT    EPW 7148   4.227   7.350   4.330  0.0219  0.2763  0.5765
 1611WAT      O 7149   1.308   5.323   4.241 -0.5084 -0.1564  0.1268
 1611WAT     H1 7150   1.231   5.328   4.280 -0.4910  1.4518 -0.0139
 1611WAT     H2 7151   1.363   5.308   4.308 -0.8199 -0.4200  0.3315
 1611WAT    EPW 7152   1.305   5.321   4.257  0.1487  0.1662  0.5157
 1612WAT      O 7153   0.309   1.093   4.363  0.3423  0.6513 -0.5929
 1612WAT     H1 7154   0.347   1.138   4.300  3.9722  0.1244  0.9925
 1612WAT     H2 7155   0.312   1.147   4.432 -2.3841  0.7604 -0.4548
 1612WAT    EPW 7156   0.315   1.108   4.364 -0.1033  0.0325  0.5090
 1613WAT      O 7157   0.908   2.578   4.334 -0.4317 -0.1352  0.4649
 1613WAT     H1 7158   0.924   2.591   4.249  0.0818 -1.1660  0.3887
 1613WAT     H2 7159   0.906   2.658   4.367  2.2223  0.1960  0.0021
 1613WAT    EPW 7160   0.910   2.592   4.326 -0.0157 -0.5262  0.4598
 1614WAT      O 7161   1.740   3.120   1.378 -0.0422 -0.4420 -0.3874
 1614WAT     H1 7162   1.683   3.099   1.316 -0.2683 -1.5282  0.1619
 1614WAT     H2 7163   1.814   3.082   1.351 -0.2513 -1.2973  0.2151
 1614WAT    EPW 7164   1.743   3.111   1.365  0.2629 -0.3943  0.0030
 1615WAT      O 7165   0.677   5.601   6.240 -0.1618 -0.0061  0.5784
 1615WAT     H1 7166   0.652   5.668   6.289 -1.7950  1.0969 -1.5925
 1615WAT     H2 7167   0.756   5.624   6.212 -0.6169  0.9532  0.0426
 1615WAT    EPW 7168   0.685   5.614   6.243 -0.0028  0.1462  0.0385
 1616WAT      O 7169   7.599   2.849   1.583 -0.5856 -0.3057  0.0349
 1616WAT     H1 7170   7.630   2.877   1.506 -0.2244  2.0191  0.9380
 1616WAT     H2 7171   7.564   2.771   1.564  0.2863 -0.2173 -2.2796
 1616WAT    EPW 7172   7.599   2.842   1.569 -0.1760  0.1472  0.0597
 1617WAT      O 7173   0.191   0.460   1.307  0.1616 -0.8014  0.2819
 1617WAT     H1 7174   0.168   0.524   1.362  1.2655  0.7878 -1.0291
 1617WAT     H2 7175   0.132   0.465   1.243  0.0632 -1.3373  0.3202
 1617WAT    EPW 7176   0.179   0.470   1.306 -0.7792 -0.0881 -0.7542
 1618WAT      O 7177   0.440   0.086   5.246  0.2184  0.0360  0.1474
 1618WAT     H1 7178   0.449   0.147   5.308 -0.9637 -0.3016  0.6905
 1618WAT     H2 7179   0.360   0.101   5.215  0.2476 -0.7061 -0.3067
 1618WAT    EPW 7180   0.429   0.097   5.251  0.0730 -0.9238  0.2974
 1619WAT      O 7181   1.911   1.123   4.267  0.3494 -0.4080 -0.3588
 1619WAT     H1 7182   1.857   1.116   4.199 -0.5246  0.4128  0.2143
 1619WAT     H2 7183   1.973   1.177   4.239 -0.5843  0.7956 -0.1934
 1619WAT    EPW 7184   1.912   1.130   4.253 -0.2809  0.1732 -0.5029
 1620WAT      O 7185   5.433   7.553   2.238 -0.5034 -0.2749  0.4081
 1620WAT     H1 7186   5.510   7.563   2.278 -0.3988 -1.4643  0.5172
 1620WAT     H2 7187   5.398   7.484   2.276 -0.3510 -1.5330 -1.5882
 1620WAT    EPW 7188   5.439   7.545   2.249  0.4184 -0.0701  0.0335
 1621WAT      O 7189   7.304   7.108   5.150 -0.6156 -0.2702  0.2145
 1621WAT     H1 7190   7.321   7.179   5.198  1.5949 -1.0333  0.6921
 1621WAT     H2 7191   7.311   7.137   5.068 -0.3424  0.2078  0.4029
 1621WAT    EPW 7192   7.307   7.123   5.145  0.0050  0.1430  0.3441
 1622WAT      O 7193   6.556   1.668   4.384 -0.1316 -0.4382 -0.3091
 1622WAT     H1 7194   6.495   1.692   4.326 -0.1894  0.3105  0.0593
 1622WAT     H2 7195   6.582   1.590   4.354  1.6219  0.9584 -2.7689
 1622WAT    EPW 7196   6.551   1.660   4.371 -0.2560 -0.2423 -0.0262
 1623WAT      O 7197   5.220   3.046   3.753  0.0529  0.2691 -0.8442
 1623WAT     H1 7198   5.209   3.111   3.696 -2.0065  0.6446 -0.1141
 1623WAT     H2 7199   5.141   3.010   3.758  0.1646  0.2090  1.6889
 1623WAT    EPW 7200   5.206   3.050   3.745  0.4866 -0.1722  0.1322
 1624WAT      O 7201   2.203   6.420   4.350 -0.2857 -1.0567  0.2237
 1624WAT     H1 7202   2.143   6.383   4.402  1.3896 -2.2975  1.3634
 1624WAT     H2 7203   2.278   6.390   4.381  0.9158 -0.0765 -1.5859
 1624WAT    EPW 7204   2.205   6.410   4.362  1.1611  0.9671  0.6817
 1625WAT      O 7205   4.054   3.729   0.844 -0.0823  0.9587  0.3489
 1625WAT     H1 7206   4.005   3.758   0.778 -0.6048 -0.6362 -0.0126
 1625WAT     H2 7207   4.047   3.792   0.904 -2.6349  0.8124  0.3228
 1625WAT    EPW 7208   4.046   3.742   0.843 -0.3683 -0.0118  0.3547
 1626WAT      O 7209   3.971   4.819   7.415 -0.3847  0.0404  0.5036
 1626WAT     H1 7210   4.049   4.859   7.420  2.2298 -4.4002  0.4615
 1626WAT     H2 7211   3.943   4.840   7.335  1.4638  0.7223 -0.0405
 1626WAT    EPW 7212   3.979   4.828   7.404 -0.2560 -0.2657  0.3325
 1627WAT      O 7213   5.881   0.408   6.518  0.1619 -0.4134 -0.0885
 1627WAT     H1 7214   5.864   0.454   6.590  0.0183 -0.7402  0.0898
 1627WAT     H2 7215   5.866   0.326   6.542  2.4575 -0.7966  0.2253
 1627WAT    EPW 7216   5.876   0.403   6.532  0.1367 -0.6936 -0.3532
 1628WAT      O 7217   3.982   4.914   7.162 -0.1798 -0.3636 -0.2915
 1628WAT     H1 7218   3.946   4.988   7.134  2.3874  0.1090 -2.8136
 1628WAT     H2 7219   4.010   4.876   7.088  3.7016 -0.9985  1.2999
 1628WAT    EPW 7220   3.981   4.919   7.147 -0.2988 -0.0007  0.4383
 1629WAT      O 7221   3.209  -0.016   1.702  0.4570  0.6371 -0.0648
 1629WAT     H1 7222   3.132   0.021   1.724  1.0122  1.1890  1.0075
 1629WAT     H2 7223   3.244   0.042   1.648 -0.3429 -0.1297 -1.4693
 1629WAT    EPW 7224   3.203  -0.002   1.698 -0.4349 -0.2039 -0.2359
 1630WAT      O 7225   5.777   5.666   1.904  0.5602 -0.0321  0.2141
 1630WAT     H1 7226   5.697   5.692   1.926  0.0528 -1.9470  0.8430
 1630WAT     H2 7227   5.824   5.740   1.907 -1.0351  1.0273  0.4171
 1630WAT    EPW 7228   5.772   5.681   1.908 -0.1129 -0.1191  0.1212
 1631WAT      O 7229   7.547   2.223   1.702 -0.0851  0.7936  0.4268
 1631WAT     H1 7230   7.465   2.236   1.675  0.1314  0.9255 -0.1745
 1631WAT     H2 7231   7.538   2.161   1.763 -0.5874  0.5297  0.0962
 1631WAT    EPW 7232   7.534   2.216   1.707 -0.2961 -0.3959 -0.1319
 1632WAT      O 7233   5.925   6.318   4.598 -0.0858  0.1533  0.0422
 1632WAT     H1 7234   5.986   6.261   4.573  0.3805  1.0254 -0.8386
 1632WAT     H2 7235   5.898   6.354   4.524 -3.4658 -1.9163  0.0381
 1632WAT    EPW 7236   5.930   6.315   4.584 -0.1361  0.0134 -0.1980
 1633WAT      O 7237   5.966   7.327   4.764  0.1968 -0.0517  0.0580
 1633WAT     H1 7238   6.035   7.380   4.770  1.1788 -1.3657  0.7170
 1633WAT     H2 7239   5.965   7.304   4.680 -0.8237  1.7208 -0.4642
 1633WAT    EPW 7240   5.976   7.332   4.753 -0.4438 -0.5141  0.0959
 1634WAT      O 7241   3.341   4.651   2.736  0.4469  0.5342 -0.1400
 1634WAT     H1 7242   3.384   4.577   2.721  1.0038  0.6977  0.5990
 1634WAT     H2 7243   3.292   4.631   2.806  1.0701  1.0390  0.4527
 1634WAT    EPW 7244   3.340   4.637   2.744 -0.1733 -0.2547  0.1798
 1635WAT      O 7245   6.029   2.271   3.023 -0.0210  0.0260 -0.5178
 1635WAT     H1 7246   6.029   2.322   3.094  1.7228  0.5634 -0.8622
 1635WAT     H2 7247   6.033   2.328   2.957 -2.1499 -0.4418 -1.1381
 1635WAT    EPW 7248   6.030   2.287   3.024  0.3490 -0.7944  0.0188
 1636WAT      O 7249   3.786   4.985   0.675 -0.3226 -0.2829  0.2642
 1636WAT     H1 7250   3.721   4.940   0.637 -0.0214 -0.8234  0.3818
 1636WAT     H2 7251   3.774   4.969   0.760 -0.5910  0.3792  0.3605
 1636WAT    EPW 7252   3.774   4.976   0.682  0.1053  0.2964  0.0828
 1637WAT      O 7253   0.836   0.545   5.234  0.1115  0.2444 -0.2593
 1637WAT     H1 7254   0.859   0.503   5.162 -2.6055  0.8342 -1.5874
 1637WAT     H2 7255   0.752   0.524   5.244  0.5004 -0.2786  3.1134
 1637WAT    EPW 7256   0.827   0.536   5.225  0.5686 -0.3341 -0.1527
 1638WAT      O 7257   6.294   1.386   3.225  0.3798  0.0901 -0.2426
 1638WAT     H1 7258   6.258   1.464   3.239 -0.9194 -0.0614 -2.4018
 1638WAT     H2 7259   6.351   1.379   3.291 -0.3778  2.2701  0.7659
 1638WAT    EPW 7260   6.297   1.397   3.237  0.4520  0.0705 -0.5405
 1639WAT      O 7261   7.499   0.246   3.083  0.2277  0.0482 -0.1207
 1639WAT     H1 7262   7.462   0.184   3.033  1.5372 -0.7517 -0.1566
 1639WAT     H2 7263   7.474   0.320   3.045 -0.3926 -0.4900 -0.8103
 1639WAT    EPW 7264   7.489   0.248   3.070  0.1128 -0.1760 -0.1824
 1640WAT      O 7265   5.541   0.745   0.928 -0.2521 -0.1588  0.6774
 1640WAT     H1 7266   5.521   0.703   0.854 -1.0027  0.6210  0.4187
 1640WAT     H2 7267   5.576   0.682   0.979 -3.4057 -1.6908  1.1794
 1640WAT    EPW 7268   5.543   0.729   0.925  0.0394 -0.2459 -0.1970
 1641WAT      O 7269   1.328   2.991   2.048 -0.4319  0.1319 -0.9203
 1641WAT     H1 7270   1.287   2.991   2.125  1.7328 -1.3252  0.3495
 1641WAT     H2 7271   1.327   2.907   2.024  0.2627  0.3339 -1.7088
 1641WAT    EPW 7272   1.322   2.979   2.055  0.2696 -0.0563 -0.3463
 1642WAT      O 7273   5.950   1.115   5.297 -0.1978 -0.0752  0.3430
 1642WAT     H1 7274   5.948   1.109   5.384 -1.3412  3.2312  0.6959
 1642WAT     H2 7275   6.035   1.116   5.278  0.1106  0.9460  1.6508
 1642WAT    EPW 7276   5.962   1.114   5.307  0.2820 -0.0862  0.3359
 1643WAT      O 7277   7.246   1.352   1.186 -0.1261  0.3457 -0.2580
 1643WAT     H1 7278   7.333   1.352   1.178 -0.1243  1.8307 -0.5023
 1643WAT     H2 7279   7.222   1.281   1.140  0.8803  0.5717 -1.1934
 1643WAT    EPW 7280   7.256   1.341   1.178 -0.1613 -0.0902 -0.1943
 1644WAT      O 7281   1.311   3.826   1.745 -0.1724 -0.1306 -0.0826
 1644WAT     H1 7282   1.267   3.809   1.671  0.1138 -2.8793  0.2817
 1644WAT     H2 7283   1.258   3.880   1.788 -1.4312 -0.3312 -1.2860
 1644WAT    EPW 7284   1.297   3.831   1.740  0.5158 -0.1840 -0.4399
 1645WAT      O 7285   6.895   6.936   5.767  0.2539  0.4485  0.0040
 1645WAT     H1 7286   6.955   6.927   5.703 -0.8798 -1.5064 -0.8758
 1645WAT     H2 7287   6.820   6.946   5.723 -0.6334 -1.4732  0.9449
 1645WAT    EPW 7288   6.893   6.936   5.751 -0.1220  0.0198  0.3395
 1646WAT      O 7289   0.641   1.742   1.491  0.0559 -0.0290 -0.5371
 1646WAT     H1 7290   0.690   1.692   1.439  0.9504  1.2980 -1.0400
 1646WAT     H2 7291   0.604   1.799   1.436 -0.0257  0.5855  0.1336
 1646WAT    EPW 7292   0.643   1.743   1.475  0.3074 -0.6315  0.5990
 1647WAT      O 7293   6.797   2.591   0.577  0.0729  0.3800  0.6093
 1647WAT     H1 7294   6.802   2.552   0.655 -1.1342 -0.2514  0.4027
 1647WAT     H2 7295   6.721   2.635   0.582  0.3480  0.9186  0.0476
 1647WAT    EPW 7296   6.786   2.591   0.590 -0.0593  0.0753  0.5848
 1648WAT      O 7297   5.422   1.589   2.813  0.6449 -0.2908  0.2339
 1648WAT     H1 7298   5.469   1.663   2.808  0.6217 -0.0953  1.9856
 1648WAT     H2 7299   5.378   1.587   2.738 -0.3528  2.1812  0.6287
 1648WAT    EPW 7300   5.423   1.600   2.801  0.4306 -0.5223  0.0609
 1649WAT      O 7301   3.039   7.309   1.267 -0.1052  0.0001 -0.4549
 1649WAT     H1 7302   2.981   7.282   1.208  0.0538 -0.2361 -0.5027
 1649WAT     H2 7303   2.991   7.326   1.337  0.0521 -3.0597  0.5369
 1649WAT    EPW 7304   3.024   7.308   1.268 -0.4664 -0.1701  0.6829
 1650WAT      O 7305   2.042   2.345   2.216 -0.1040 -0.1729  0.2458
 1650WAT     H1 7306   2.109   2.397   2.238 -0.0922 -0.0342 -0.1112
 1650WAT     H2 7307   2.076   2.265   2.220 -0.7024 -0.4178  3.1103
 1650WAT    EPW 7308   2.057   2.341   2.220 -0.4691  0.0758  0.4251
 1651WAT      O 7309   4.212   5.975   0.776  0.3412  0.1426  0.0416
 1651WAT     H1 7310   4.192   6.014   0.701  0.8715  0.3502  0.0014
 1651WAT     H2 7311   4.243   6.040   0.826  3.0755 -0.4804 -0.6827
 1651WAT    EPW 7312   4.214   5.990   0.773  0.2808 -0.6473  0.3657
 1652WAT      O 7313   2.375   1.233   5.385 -0.0883  0.0260 -0.7946
 1652WAT     H1 7314   2.432   1.213   5.448 -0.5906 -0.7250 -0.5678
 1652WAT     H2 7315   2.299   1.204   5.416 -0.6157  1.0819 -1.0637
 1652WAT    EPW 7316   2.372   1.226   5.399  0.1676 -0.3111 -0.9585
 1653WAT      O 7317   4.473   6.062   4.498  0.1162 -0.5544 -0.0557
 1653WAT     H1 7318   4.528   6.001   4.527  0.0722 -0.2374  0.7288
 1653WAT     H2 7319   4.487   6.063   4.412  1.7531 -0.0915  0.1806
 1653WAT    EPW 7320   4.484   6.053   4.489  0.3381 -0.1609 -0.2215
 1654WAT      O 7321   7.156   4.667   6.057 -0.3907 -0.3146 -0.0482
 1654WAT     H1 7322   7.137   4.615   5.990  0.1805 -2.8114  1.5416
 1654WAT     H2 7323   7.222   4.625   6.097 -0.5765  1.1168  1.9564
 1654WAT    EPW 7324   7.163   4.653   6.053  0.3782  0.0280 -0.7918
 1655WAT      O 7325   5.462   4.548   0.929 -0.5669 -0.3522 -0.3058
 1655WAT     H1 7326   5.438   4.618   0.882  1.0873 -0.2697 -1.1032
 1655WAT     H2 7327   5.514   4.581   0.991  0.3777 -0.8524 -0.7986
 1655WAT    EPW 7328   5.466   4.563   0.931 -0.4102  0.2976  0.5405
 1656WAT      O 7329   6.913   5.217   3.283  0.4500 -0.4655  0.0936
 1656WAT     H1 7330   6.916   5.260   3.207  1.2629 -2.1328 -0.8775
 1656WAT     H2 7331   6.829   5.219   3.305  0.3984  1.1590 -0.1571
 1656WAT    EPW 7332   6.901   5.223   3.275  0.3174  0.8430 -0.9725
 1657WAT      O 7333   6.098   0.773   0.146 -0.1380  0.4340 -0.2915
 1657WAT     H1 7334   6.174   0.804   0.118 -0.1114  0.5055 -0.1424
 1657WAT     H2 7335   6.067   0.837   0.197 -1.7436  1.7404 -2.7391
 1657WAT    EPW 7336   6.105   0.787   0.149 -0.5946  0.1767  0.2272
 1658WAT      O 7337   1.401   4.406   5.384  0.4798  0.4584 -0.3662
 1658WAT     H1 7338   1.422   4.473   5.332 -0.5561  0.0693 -1.3433
 1658WAT     H2 7339   1.371   4.346   5.328  0.6378 -0.5223  0.5633
 1658WAT    EPW 7340   1.400   4.407   5.368  0.1362  0.3106  0.3139
 1659WAT      O 7341   0.717   7.460   2.147 -0.1302 -0.2554  0.0903
 1659WAT     H1 7342   0.658   7.489   2.090 -2.1818  0.5436  2.4693
 1659WAT     H2 7343   0.706   7.374   2.145 -1.0259 -0.1504  0.1393
 1659WAT    EPW 7344   0.707   7.452   2.138 -0.3177 -0.4481  0.5579
 1660WAT      O 7345   5.882   1.112   4.132  0.1414  0.2026 -0.6256
 1660WAT     H1 7346   5.801   1.079   4.127 -0.4421  1.6789 -1.4828
 1660WAT     H2 7347   5.884   1.148   4.212  0.8223 -1.8733  0.3656
 1660WAT    EPW 7348   5.871   1.113   4.143 -0.2446 -0.1338  0.3623
 1661WAT      O 7349   4.839   1.687   3.122 -0.0182 -0.1039  0.0142
 1661WAT     H1 7350   4.919   1.698   3.088 -0.6307  1.4819 -1.0370
 1661WAT     H2 7351   4.833   1.601   3.132  1.4888 -0.3363 -0.7532
 1661WAT    EPW 7352   4.850   1.676   3.118 -0.1260  0.0177  0.0681
 1662WAT      O 7353   2.236   0.550   5.133 -0.2164  0.1633  0.5834
 1662WAT     H1 7354   2.301   0.506   5.171 -0.2886  0.0837  0.6144
 1662WAT     H2 7355   2.252   0.633   5.155  0.2853  0.2314 -0.0194
 1662WAT    EPW 7356   2.248   0.556   5.142  0.0653 -0.0084 -0.5841
 1663WAT      O 7357   1.081   0.919   7.141 -0.6803 -0.3370 -0.3196
 1663WAT     H1 7358   1.002   0.933   7.175 -0.4103  0.5766 -0.0202
 1663WAT     H2 7359   1.067   0.908   7.056 -1.1686 -0.6500 -0.2000
 1663WAT    EPW 7360   1.068   0.919   7.134  0.4055 -0.4732 -0.3724
 1664WAT      O 7361   1.075   0.463   2.008  0.2236  0.1708  0.2202
 1664WAT     H1 7362   1.025   0.403   2.045  0.0404  0.6621  0.7872
 1664WAT     H2 7363   1.024   0.500   1.949  0.1725  0.1226  0.2348
 1664WAT    EPW 7364   1.060   0.460   2.005 -0.6157 -0.3740  0.1311
 1665WAT      O 7365   0.598   4.073   4.375 -0.1765 -0.0307 -0.0189
 1665WAT     H1 7366   0.590   4.017   4.309 -1.7532  0.1077  0.0087
 1665WAT     H2 7367   0.634   4.025   4.438  1.8032 -0.0340 -1.0819
 1665WAT    EPW 7368   0.602   4.057   4.375  0.4713 -0.0094 -0.2459
 1666WAT      O 7369   6.286   7.428   2.198  0.4523  0.0939 -0.1804
 1666WAT     H1 7370   6.218   7.471   2.164  0.1619  0.1952  0.5196
 1666WAT     H2 7371   6.270   7.428   2.284  0.3092 -1.6632 -0.1700
 1666WAT    EPW 7372   6.274   7.435   2.206  0.3933  0.6735  0.6387
 1667WAT      O 7373   1.857   1.803   3.644  0.4858  0.5358 -0.0492
 1667WAT     H1 7374   1.811   1.842   3.581  1.5742  0.1538 -1.1234
 1667WAT     H2 7375   1.916   1.863   3.666  0.2894  0.5615  0.4142
 1667WAT    EPW 7376   1.859   1.818   3.638 -0.1170 -0.0418  0.1812
 1668WAT      O 7377   0.931   1.174   5.042 -0.3495  0.2370  0.6834
 1668WAT     H1 7378   1.014   1.195   5.024 -0.4103  0.4583  0.6501
 1668WAT     H2 7379   0.924   1.092   5.014 -0.1409  0.2154  0.6879
 1668WAT    EPW 7380   0.943   1.165   5.036 -0.3004  0.3383 -0.3892
 1669WAT      O 7381   1.401   1.855   1.794 -0.6150 -0.0982 -0.1535
 1669WAT     H1 7382   1.485   1.859   1.769 -0.7242  0.5854 -0.4377
 1669WAT     H2 7383   1.387   1.769   1.804  0.3291 -0.1757  0.6403
 1669WAT    EPW 7384   1.411   1.843   1.792  0.1851 -0.1172 -0.1022
 1670WAT      O 7385   4.076   6.364   0.482 -0.0108 -0.3859  0.3994
 1670WAT     H1 7386   4.158   6.379   0.508  0.3992  0.4731 -1.2488
 1670WAT     H2 7387   4.031   6.430   0.516 -0.3746 -1.6860  2.6248
 1670WAT    EPW 7388   4.082   6.376   0.491  0.3333  0.1662  0.0180
 1671WAT      O 7389   5.277   1.114   2.396  0.3999  0.5324 -0.4156
 1671WAT     H1 7390   5.249   1.091   2.316 -0.2676  1.3005 -0.4110
 1671WAT     H2 7391   5.216   1.082   2.449  0.3676  0.8119 -0.2817
 1671WAT    EPW 7392   5.264   1.106   2.392  0.2747 -0.5760  0.3623
 1672WAT      O 7393   1.402   2.632   7.079  0.0469 -0.7869 -0.1921
 1672WAT     H1 7394   1.426   2.702   7.127 -0.4041  2.0021 -3.5982
 1672WAT     H2 7395   1.477   2.603   7.046  0.0999 -1.1501  0.2351
 1672WAT    EPW 7396   1.416   2.638   7.082  0.2607  0.1780  0.3797
 1673WAT      O 7397   3.595   6.737   2.914 -0.0527  0.8801  0.5588
 1673WAT     H1 7398   3.570   6.676   2.857 -1.8330  1.5241  0.5824
 1673WAT     H2 7399   3.536   6.801   2.902 -1.8006  0.2671  4.4412
 1673WAT    EPW 7400   3.582   6.738   2.904  0.2897  0.2211  0.1312
 1674WAT      O 7401   0.497   6.963   7.355 -0.8814  0.7387 -0.2319
 1674WAT     H1 7402   0.496   6.878   7.375 -2.4692  0.4430 -1.3686
 1674WAT     H2 7403   0.482   6.965   7.269  0.2805  2.1475 -0.4412
 1674WAT    EPW 7404   0.494   6.951   7.345 -0.0394 -0.2325 -1.1933
 1675WAT      O 7405   6.289   0.483   6.439 -0.0391  0.8986 -0.5618
 1675WAT     H1 7406   6.326   0.546   6.487  0.5079  1.0551 -1.1779
 1675WAT     H2 7407   6.238   0.442   6.497  0.4315  1.2199  0.1083
 1675WAT    EPW 7408   6.287   0.487   6.455  0.1673 -0.0200 -0.1399
 1676WAT      O 7409   4.063   1.003   7.180  0.0285 -0.8889  0.3090
 1676WAT     H1 7410   4.008   1.071   7.175  1.6448  0.5691  1.2371
 1676WAT     H2 7411   4.077   0.983   7.096  1.9521  2.0854 -0.2554
 1676WAT    EPW 7412   4.057   1.010   7.167  0.1656  0.5051 -0.1644
 1677WAT      O 7413   2.931   3.388   2.064  0.0270  0.1901 -0.0623
 1677WAT     H1 7414   2.926   3.460   2.016  1.5848  0.0622 -0.4736
 1677WAT     H2 7415   3.014   3.387   2.091  0.1275 -1.5978 -0.3036
 1677WAT    EPW 7416   2.943   3.398   2.061  0.5444 -0.1264  0.2663
 1678WAT      O 7417   7.402   0.828   4.386  0.0022  0.3420 -0.0151
 1678WAT     H1 7418   7.449   0.844   4.314  1.8977  1.1346  1.3066
 1678WAT     H2 7419   7.403   0.905   4.428 -0.1681 -0.3598  1.3298
 1678WAT    EPW 7420   7.409   0.842   4.382 -0.0803 -0.1918 -0.0186
 1679WAT      O 7421   5.766   4.887   3.557  0.2351 -0.4142 -0.1123
 1679WAT     H1 7422   5.747   4.804   3.539  1.7155 -1.1720  1.4815
 1679WAT     H2 7423   5.853   4.891   3.545  0.1142  1.0619 -0.6748
 1679WAT    EPW 7424   5.776   4.875   3.553 -0.2599  0.4447 -0.1596
 1680WAT      O 7425   6.260   4.114   5.285 -0.3353  0.7826  0.0775
 1680WAT     H1 7426   6.257   4.138   5.201  1.5610  0.7882 -0.0209
 1680WAT     H2 7427   6.258   4.027   5.280  2.2378  0.6711 -0.1873
 1680WAT    EPW 7428   6.259   4.104   5.272  0.2103  0.0253  0.0851
 1681WAT      O 7429   0.195   5.876   1.320  0.2205 -0.0614  0.4501
 1681WAT     H1 7430   0.149   5.808   1.349 -0.7769  1.2532  2.0943
 1681WAT     H2 7431   0.188   5.870   1.233  0.8082 -2.4426  0.5111
 1681WAT    EPW 7432   0.187   5.865   1.311 -0.3480  0.0807 -0.9236
 1682WAT      O 7433   2.280   4.662   5.131 -0.9279  0.2046  0.0715
 1682WAT     H1 7434   2.269   4.642   5.215  0.6529 -2.6643 -0.2786
 1682WAT     H2 7435   2.356   4.703   5.128  0.0665 -1.5491 -0.0991
 1682WAT    EPW 7436   2.289   4.665   5.143 -0.0666  0.0390  0.1924
 1683WAT      O 7437   0.273   4.380   3.214 -0.4757  0.0278  0.5980
 1683WAT     H1 7438   0.243   4.444   3.264  0.8257  1.1149  0.0555
 1683WAT     H2 7439   0.357   4.373   3.237 -0.1151 -0.1558 -0.6682
 1683WAT    EPW 7440   0.281   4.389   3.225 -0.1459  0.2698 -0.3382
 1684WAT      O 7441   4.228   1.785   2.176 -0.3203  0.2236  0.6255
 1684WAT     H1 7442   4.273   1.721   2.213 -0.5757  0.5857  1.6072
 1684WAT     H2 7443   4.212   1.756   2.096 -0.5341 -0.9843  1.0887
 1684WAT    EPW 7444   4.232   1.771   2.170 -0.2368 -0.3056 -0.3733
 1685WAT      O 7445   6.549   1.631   3.404 -0.3134  0.4816  0.0850
 1685WAT     H1 7446   6.525   1.612   3.485 -0.5380 -1.3122 -0.3570
 1685WAT     H2 7447   6.530   1.716   3.396  0.2345  0.8351  2.0613
 1685WAT    EPW 7448   6.543   1.641   3.415 -0.4905  0.2564  0.1554
 1686WAT      O 7449   2.483   0.277   1.649  0.3801 -0.3597  0.1598
 1686WAT     H1 7450   2.495   0.228   1.578  1.2827 -0.5837  0.4527
 1686WAT     H2 7451   2.464   0.356   1.617  1.9200 -0.1655 -0.3561
 1686WAT    EPW 7452   2.482   0.281   1.634 -0.0461 -0.2797  0.4090
 1687WAT      O 7453   1.735   3.894   1.461 -0.3790 -0.2164 -0.1421
 1687WAT     H1 7454   1.675   3.884   1.524 -0.3569  0.4293 -0.0085
 1687WAT     H2 7455   1.753   3.979   1.463  0.7587 -0.4339  0.0137
 1687WAT    EPW 7456   1.729   3.905   1.470 -0.5680  0.0645  0.1393
 1688WAT      O 7457   7.125   5.763   0.998 -0.4397  0.0706  0.1903
 1688WAT     H1 7458   7.126   5.849   0.985 -0.2955  0.0019 -0.2820
 1688WAT     H2 7459   7.119   5.730   0.917 -1.7002 -0.3463  0.4277
 1688WAT    EPW 7460   7.124   5.771   0.984  0.2932  0.3102 -0.1822
 1689WAT      O 7461   6.749   5.094   4.389 -0.0239 -0.3436 -0.2174
 1689WAT     H1 7462   6.780   5.114   4.467  1.9152 -1.3941 -0.6601
 1689WAT     H2 7463   6.759   5.007   4.385 -2.2142 -0.6308 -0.7779
 1689WAT    EPW 7464   6.755   5.084   4.400 -0.0502 -0.1309 -0.1426
 1690WAT      O 7465   5.996   3.095   2.793  0.1416  0.0943 -0.6743
 1690WAT     H1 7466   5.959   3.059   2.863  1.2276 -1.9370 -1.0591
 1690WAT     H2 7467   6.081   3.091   2.810  0.3330  2.4182 -0.8376
 1690WAT    EPW 7468   6.003   3.089   2.806  0.6847 -0.8963 -0.7600
 1691WAT      O 7469   6.843   2.821   1.990 -0.2860  0.1903 -0.5620
 1691WAT     H1 7470   6.865   2.906   1.993  0.2773  0.0164  1.3616
 1691WAT     H2 7471   6.775   2.815   2.043 -0.0022 -0.6393 -0.2721
 1691WAT    EPW 7472   6.836   2.833   1.998 -0.0128 -0.5912  0.2618
 1692WAT      O 7473   6.247   1.066   7.565 -0.0507 -0.2057 -0.1628
 1692WAT     H1 7474   6.290   1.014   7.621 -0.1066 -0.5411 -0.4291
 1692WAT     H2 7475   6.259   1.027   7.488 -0.2272  0.0926 -0.3416
 1692WAT    EPW 7476   6.255   1.053   7.562 -0.1887 -0.4447  0.2229
 1693WAT      O 7477   6.506   6.941   5.184 -0.1578 -0.1640 -0.0465
 1693WAT     H1 7478   6.510   6.883   5.119 -2.9533 -0.1243 -0.3751
 1693WAT     H2 7479   6.558   7.006   5.157  2.9739 -2.2851  0.2769
 1693WAT    EPW 7480   6.515   6.942   5.171 -0.4118  0.5122  0.2188
 1694WAT      O 7481   3.796   2.567   6.153  0.0058 -0.0371 -0.1308
 1694WAT     H1 7482   3.759   2.590   6.229 -0.5358  0.8350 -0.6439
 1694WAT     H2 7483   3.793   2.640   6.106  0.8133 -0.4293 -0.8102
 1694WAT    EPW 7484   3.790   2.581   6.158 -0.7966  0.5007  0.0184
 1695WAT      O 7485   7.302   0.820   5.789  0.4719  0.1204  0.9372
 1695WAT     H1 7486   7.376   0.858   5.814  0.1823  0.8912  0.6731
 1695WAT     H2 7487   7.246   0.887   5.782  0.5443  0.0142 -1.7734
 1695WAT    EPW 7488   7.305   0.836   5.791  0.5681  0.0499  0.2813
 1696WAT      O 7489   4.941   4.131   7.559 -0.4247 -0.2752  0.0720
 1696WAT     H1 7490   4.943   4.214   7.586 -2.3229 -0.1203 -0.1694
 1696WAT     H2 7491   4.914   4.087   7.629 -0.6297 -0.5285 -0.1677
 1696WAT    EPW 7492   4.938   4.137   7.573  0.1727  0.0863  0.1288
 1697WAT      O 7493   0.422   7.032   2.080 -0.1049 -0.5860  0.3002
 1697WAT     H1 7494   0.384   7.017   2.003 -0.2308 -2.0876  0.6154
 1697WAT     H2 7495   0.437   6.952   2.111 -1.6368 -0.0859  2.5942
 1697WAT    EPW 7496   0.419   7.018   2.073 -0.1825 -0.5797  0.2249
 1698WAT      O 7497   1.760   5.026   3.906 -0.4574  0.3339  0.3063
 1698WAT     H1 7498   1.740   5.007   3.988  0.4779 -1.4452  0.1612
 1698WAT     H2 7499   1.698   4.985   3.860  1.4283 -2.3733 -0.0023
 1698WAT    EPW 7500   1.748   5.017   3.911  0.2755  0.3694  0.1627
 1699WAT      O 7501   4.494   1.285   3.867 -0.2240  0.1332  0.3777
 1699WAT     H1 7502   4.553   1.345   3.844  0.8061 -0.9401  0.0976
 1699WAT     H2 7503   4.539   1.210   3.864 -1.5905 -0.7159  0.2303
 1699WAT    EPW 7504   4.510   1.283   3.863 -0.5586 -0.1391 -0.2981
 1700WAT      O 7505   4.101   4.786   6.651  0.0867  0.1779 -0.5331
 1700WAT     H1 7506   4.135   4.715   6.689  2.5443  1.2982 -0.3909
 1700WAT     H2 7507   4.066   4.756   6.577  0.0616 -1.3127  0.0493
 1700WAT    EPW 7508   4.101   4.771   6.646 -0.2480 -0.0125  0.4763
 1701WAT      O 7509   6.007   1.420   3.484  0.0944 -0.3162  0.5852
 1701WAT     H1 7510   5.968   1.344   3.463  0.9054 -0.9579  1.3224
 1701WAT     H2 7511   6.087   1.395   3.508 -0.3381  0.5151  3.0893
 1701WAT    EPW 7512   6.013   1.405   3.484 -0.0528 -1.1464  0.6734
 1702WAT      O 7513   1.858   5.102   2.885  0.8257 -0.0417  0.1622
 1702WAT     H1 7514   1.928   5.136   2.923  1.0075 -0.0936 -0.1190
 1702WAT     H2 7515   1.854   5.143   2.808 -0.5839  1.3661  0.9400
 1702WAT    EPW 7516   1.868   5.113   2.879 -0.0525 -0.5665  0.1888
 1703WAT      O 7517   2.897   1.288   0.643 -0.3153 -0.5671  0.1541
 1703WAT     H1 7518   2.932   1.260   0.569  1.2285 -1.3154  1.1093
 1703WAT     H2 7519   2.960   1.273   0.702 -1.4770  0.0259  1.6022
 1703WAT    EPW 7520   2.912   1.282   0.641  0.0828  0.5052  0.8374
 1704WAT      O 7521   7.025   0.422   7.318 -0.0353 -0.5816  0.5349
 1704WAT     H1 7522   7.107   0.396   7.303  0.3481 -1.0939  3.1095
 1704WAT     H2 7523   6.998   0.369   7.382 -2.0634  0.2063  0.4051
 1704WAT    EPW 7524   7.033   0.411   7.325  0.2646  0.3071 -0.1946
 1705WAT      O 7525   0.777   3.578   0.147 -0.0592  0.0416  0.2754
 1705WAT     H1 7526   0.784   3.518   0.210 -1.4516  1.5957  2.0303
 1705WAT     H2 7527   0.853   3.620   0.149 -0.1884  0.2468  1.1400
 1705WAT    EPW 7528   0.789   3.575   0.157 -0.0659 -0.0458 -0.2948
 1706WAT      O 7529   4.762   3.558   6.463 -0.1915  0.1617  0.3358
 1706WAT     H1 7530   4.847   3.541   6.466 -0.5220 -1.5932  1.0097
 1706WAT     H2 7531   4.725   3.481   6.481 -1.9077  1.0988  1.0939
 1706WAT    EPW 7532   4.769   3.544   6.467  0.2055 -0.1039  0.3216
 1707WAT      O 7533   7.157   5.554   2.224  0.1511  0.1392 -0.1791
 1707WAT     H1 7534   7.219   5.493   2.234  0.4097  0.5307  0.7860
 1707WAT     H2 7535   7.199   5.629   2.243 -0.4111  0.5021 -0.3324
 1707WAT    EPW 7536   7.173   5.556   2.228  0.2762  0.5275 -0.5473
 1708WAT      O 7537   6.257   3.688   1.861  0.5144  0.2150  0.0070
 1708WAT     H1 7538   6.341   3.666   1.850  0.6439  1.1074 -0.9733
 1708WAT     H2 7539   6.236   3.725   1.785 -0.4933  0.8928  0.5918
 1708WAT    EPW 7540   6.266   3.690   1.848 -0.0043  0.7605  0.3659
 1709WAT      O 7541   0.244   2.722   0.851 -0.2379  0.0798 -0.0361
 1709WAT     H1 7542   0.283   2.691   0.780  0.7583 -0.3713  0.6717
 1709WAT     H2 7543   0.265   2.807   0.850 -1.4625  0.3982 -1.0288
 1709WAT    EPW 7544   0.253   2.730   0.841 -0.3045  0.0037  0.2186
 1710WAT      O 7545   5.770   2.689   4.789  0.5371 -0.8936 -0.0920
 1710WAT     H1 7546   5.836   2.693   4.731  1.6540 -1.7454  1.0757
 1710WAT     H2 7547   5.808   2.661   4.862 -1.1408 -1.4230  0.6284
 1710WAT    EPW 7548   5.785   2.686   4.791  0.2708  0.2402  0.0675
 1711WAT      O 7549   4.285   3.054   5.804 -0.6841 -0.2536  0.0029
 1711WAT     H1 7550   4.280   3.013   5.881 -0.0970 -0.3132  0.0136
 1711WAT     H2 7551   4.346   3.009   5.761  0.4663  0.9728  0.2567
 1711WAT    EPW 7552   4.293   3.041   5.809 -0.1112  0.1845 -0.0650
 1712WAT      O 7553   5.760   6.954   6.800 -0.0221 -0.1960 -0.1579
 1712WAT     H1 7554   5.776   6.996   6.875  2.9357 -0.3607 -0.5908
 1712WAT     H2 7555   5.687   6.991   6.771 -0.5999  0.6973  2.1932
 1712WAT    EPW 7556   5.752   6.966   6.807  0.1077 -0.2647  0.1653
 1713WAT      O 7557   2.141   1.107   1.584  0.6611 -0.0381  0.1849
 1713WAT     H1 7558   2.201   1.082   1.526  2.4172 -2.4797  2.8240
 1713WAT     H2 7559   2.066   1.085   1.546  1.6881 -1.0937 -1.3605
 1713WAT    EPW 7560   2.139   1.100   1.570 -0.0538 -0.9590 -0.0814
 1714WAT      O 7561   2.167   1.647   1.606  0.3619  0.4703  0.4633
 1714WAT     H1 7562   2.254   1.648   1.607  0.3700 -0.1984  1.4129
 1714WAT     H2 7563   2.148   1.571   1.567  0.1982  0.6239  0.2400
 1714WAT    EPW 7564   2.177   1.636   1.600  0.0959  0.4422  0.1786
 1715WAT      O 7565   5.417   2.895   1.169  0.6524  0.6429  0.3642
 1715WAT     H1 7566   5.346   2.940   1.145  0.1883  1.1633  2.5222
 1715WAT     H2 7567   5.398   2.813   1.145 -0.5473  0.8322  0.6022
 1715WAT    EPW 7568   5.404   2.889   1.162 -0.4658 -0.0176  0.3658
 1716WAT      O 7569   0.757   7.156   2.910 -0.0404 -0.0620  0.1538
 1716WAT     H1 7570   0.769   7.124   2.830 -2.0089  0.5062 -0.4388
 1716WAT     H2 7571   0.770   7.242   2.900 -0.9403  0.0985  0.2601
 1716WAT    EPW 7572   0.761   7.164   2.897 -0.4146 -0.3531 -0.0310
 1717WAT      O 7573   5.920   5.665   6.380  0.2871 -0.1337 -0.1808
 1717WAT     H1 7574   5.866   5.704   6.324  1.0227  1.9420  0.4630
 1717WAT     H2 7575   5.882   5.677   6.457  0.9470  0.0306  0.1203
 1717WAT    EPW 7576   5.907   5.673   6.383  0.5427 -0.1019 -0.2639
 1718WAT      O 7577   2.736   2.692   7.223 -0.4213  0.3421  0.6921
 1718WAT     H1 7578   2.730   2.605   7.221 -3.0879  0.4666 -0.4751
 1718WAT     H2 7579   2.797   2.710   7.163  0.1715 -0.7100  0.9656
 1718WAT    EPW 7580   2.744   2.682   7.214 -0.0130  0.0352  0.5586
 1719WAT      O 7581   0.137   6.292   0.427  0.5442 -0.0556  0.1454
 1719WAT     H1 7582   0.072   6.239   0.453  1.1344 -0.7563  0.2305
 1719WAT     H2 7583   0.096   6.365   0.404 -0.0154  0.9926  3.8649
 1719WAT    EPW 7584   0.121   6.295   0.427 -0.1793  0.5463 -0.0812
 1720WAT      O 7585   5.127   6.724   2.912  0.1508 -0.2513  0.5619
 1720WAT     H1 7586   5.134   6.799   2.869 -0.0683 -0.1546  0.6956
 1720WAT     H2 7587   5.137   6.747   2.995  0.1579 -0.3798  0.5964
 1720WAT    EPW 7588   5.130   6.738   2.918 -0.3195 -0.0460  0.4588
 1721WAT      O 7589   2.283   1.942   0.294  0.3189  0.2166 -0.3113
 1721WAT     H1 7590   2.271   2.028   0.287  0.3240  0.2145 -0.3455
 1721WAT     H2 7591   2.201   1.910   0.293  0.0273  0.4664  3.1744
 1721WAT    EPW 7592   2.269   1.950   0.293 -0.4424  0.3508 -0.0053
 1722WAT      O 7593   4.282   4.473   5.650  0.4872 -0.0866 -0.1316
 1722WAT     H1 7594   4.300   4.546   5.606  2.0897 -1.5263 -2.0474
 1722WAT     H2 7595   4.215   4.438   5.606 -0.0510  0.0417  0.5733
 1722WAT    EPW 7596   4.275   4.479   5.637 -0.7202 -0.1417  0.3680
 1723WAT      O 7597   7.466   0.712   1.091 -0.0084 -0.2821  0.1074
 1723WAT     H1 7598   7.421   0.647   1.128  1.2200 -0.8793  0.6075
 1723WAT     H2 7599   7.423   0.783   1.116  0.1404 -0.7409  1.8137
 1723WAT    EPW 7600   7.453   0.713   1.100 -0.5712 -0.0058 -0.1703
 1724WAT      O 7601   7.041   5.250   1.539  0.2705 -0.0141 -0.1922
 1724WAT     H1 7602   7.105   5.205   1.576 -0.1192 -0.8608 -0.5302
 1724WAT     H2 7603   7.012   5.198   1.475 -2.3666 -0.7604  1.4454
 1724WAT    EPW 7604   7.046   5.236   1.535  0.1405 -0.2131 -0.4570
 1725WAT      O 7605   4.493   0.420   7.248  0.4504 -0.0208  0.1169
 1725WAT     H1 7606   4.480   0.505   7.231 -0.9130  0.3933  2.6355
 1725WAT     H2 7607   4.549   0.395   7.186  1.0630  2.7553 -0.6100
 1725WAT    EPW 7608   4.499   0.429   7.236 -0.0016 -0.2869  0.1232
 1726WAT      O 7609   1.586   6.219   0.370 -0.5296 -0.7714 -0.1823
 1726WAT     H1 7610   1.545   6.161   0.318 -1.8125  0.5952 -0.7616
 1726WAT     H2 7611   1.653   6.245   0.322 -0.9371 -0.5164 -0.6279
 1726WAT    EPW 7612   1.590   6.214   0.355 -0.0648  0.3294 -0.6024
 1727WAT      O 7613   3.932   0.914   1.449  0.2983  0.1112  0.4003
 1727WAT     H1 7614   3.902   0.896   1.370 -0.3400  0.9641  0.4386
 1727WAT     H2 7615   4.014   0.942   1.434  0.3217 -0.1220  0.0872
 1727WAT    EPW 7616   3.940   0.916   1.435  0.0331 -0.0296 -0.8073
 1728WAT      O 7617   6.149   1.407   1.622  0.6931 -0.1233  0.1277
 1728WAT     H1 7618   6.181   1.488   1.629  3.2797 -1.0255 -0.1178
 1728WAT     H2 7619   6.137   1.382   1.704  1.1190  0.0711  0.2493
 1728WAT    EPW 7620   6.152   1.415   1.635  0.3392 -0.3557  0.4458
 1729WAT      O 7621   5.961   1.459   7.041 -0.1861  0.2567  0.0264
 1729WAT     H1 7622   6.019   1.410   7.084  0.4787  0.5687 -0.4962
 1729WAT     H2 7623   5.966   1.537   7.081  0.9092  0.7353 -1.0142
 1729WAT    EPW 7624   5.970   1.464   7.054 -0.2429 -0.2362 -0.6433
 1730WAT      O 7625   0.373   2.013   1.649  0.2880  0.5189 -0.0653
 1730WAT     H1 7626   0.355   1.976   1.726 -1.4620  1.5278  0.0603
 1730WAT     H2 7627   0.343   1.956   1.591  0.0129  0.5545  0.0436
 1730WAT    EPW 7628   0.366   1.999   1.652  0.2955 -0.1367  0.3884
 1731WAT      O 7629   5.224   6.094   4.169  0.1947 -0.6257 -0.6026
 1731WAT     H1 7630   5.180   6.021   4.190  0.3246 -0.3705  0.6414
 1731WAT     H2 7631   5.200   6.151   4.231 -2.1618  1.3734 -3.0829
 1731WAT    EPW 7632   5.214   6.092   4.181  0.4169  0.6045  0.3054
 1732WAT      O 7633   7.199   3.263   0.749 -0.1587  0.4872  0.3539
 1732WAT     H1 7634   7.144   3.326   0.774  2.0487  2.0107  1.8344
 1732WAT     H2 7635   7.176   3.195   0.798 -0.5659  1.1841  1.1740
 1732WAT    EPW 7636   7.188   3.262   0.760  0.9137  0.1889 -0.3964
 1733WAT      O 7637   5.404   2.189   0.689  0.5157  0.2268  0.5785
 1733WAT     H1 7638   5.332   2.181   0.738  0.8903 -0.2115  1.0614
 1733WAT     H2 7639   5.413   2.275   0.680 -0.6089  0.2789 -0.2913
 1733WAT    EPW 7640   5.395   2.201   0.695 -0.1291  0.0686 -0.0576
 1734WAT      O 7641   5.069   4.539   4.879 -0.2541  0.1938  0.0079
 1734WAT     H1 7642   5.030   4.603   4.923  0.2822  0.4541  0.1082
 1734WAT     H2 7643   5.026   4.537   4.803 -0.6960  0.2358  0.2542
 1734WAT    EPW 7644   5.056   4.548   4.874  0.3668  0.1043 -0.5029
 1735WAT      O 7645   1.832   2.374   2.409 -0.7595  0.8985 -0.6293
 1735WAT     H1 7646   1.773   2.318   2.378  0.3804 -0.5021 -0.3802
 1735WAT     H2 7647   1.893   2.375   2.347  0.8238 -0.7774  0.7778
 1735WAT    EPW 7648   1.832   2.366   2.395 -0.1335 -0.1685  0.0928
 1736WAT      O 7649   6.805   4.386   0.750 -0.3485 -0.0955 -0.5611
 1736WAT     H1 7650   6.835   4.463   0.723 -0.7531 -0.1282 -1.1358
 1736WAT     H2 7651   6.877   4.340   0.768 -0.1154  0.7093  0.6669
 1736WAT    EPW 7652   6.820   4.390   0.749 -0.2448 -0.1071 -0.6810
 1737WAT      O 7653   5.561   7.506   0.578  0.5597  0.0813 -0.6894
 1737WAT     H1 7654   5.534   7.513   0.495 -1.8543  0.3734  0.0604
 1737WAT     H2 7655   5.528   7.576   0.617 -0.6285 -1.3648  1.0566
 1737WAT    EPW 7656   5.552   7.517   0.571  0.0469  0.0202  0.0960
 1738WAT      O 7657   0.612   4.414   2.275 -0.0218  0.0729  0.2695
 1738WAT     H1 7658   0.695   4.427   2.298 -0.7021  1.3266  2.2257
 1738WAT     H2 7659   0.583   4.355   2.332 -0.7073  0.2927  0.1628
 1738WAT    EPW 7660   0.620   4.407   2.287  1.0906 -0.5548  0.2580
 1739WAT      O 7661   5.784   2.158   5.470 -0.0906 -0.4063  0.4014
 1739WAT     H1 7662   5.855   2.204   5.450 -0.7098  1.0188  1.2794
 1739WAT     H2 7663   5.718   2.209   5.442 -0.8050 -0.7217  1.4485
 1739WAT    EPW 7664   5.785   2.173   5.463 -0.4154  0.2737  0.6313
 1740WAT      O 7665   7.389   1.775   5.807  0.1123 -0.1749 -0.4144
 1740WAT     H1 7666   7.304   1.767   5.822 -0.2834  1.3131 -1.5629
 1740WAT     H2 7667   7.398   1.749   5.724  1.0721 -1.8483  0.1704
 1740WAT    EPW 7668   7.378   1.770   5.797 -0.4387 -0.0663 -0.3882
 1741WAT      O 7669   6.686   2.947   3.513 -0.3656 -0.1658  0.2690
 1741WAT     H1 7670   6.748   2.886   3.511 -0.4866 -0.3074  0.7811
 1741WAT     H2 7671   6.623   2.913   3.462 -1.4009 -1.5455  2.3239
 1741WAT    EPW 7672   6.686   2.933   3.505  0.1289 -0.4414 -0.2716
 1742WAT      O 7673   3.736   2.037   4.714  0.3714 -0.5376 -0.1087
 1742WAT     H1 7674   3.821   2.058   4.714  0.5394 -1.0589  1.8430
 1742WAT     H2 7675   3.702   2.092   4.772  0.2556 -3.3165  2.7021
 1742WAT    EPW 7676   3.744   2.048   4.722  0.3982  0.0758  0.3988
 1743WAT      O 7677   2.138   6.021   7.542 -0.2934  0.1480  0.2972
 1743WAT     H1 7678   2.097   5.977   7.479 -0.5047  0.6079  0.1077
 1743WAT     H2 7679   2.208   6.053   7.502  0.2654 -0.6323  0.6201
 1743WAT    EPW 7680   2.142   6.019   7.527  0.6700  0.3250  0.3217
 1744WAT      O 7681   2.956   4.475   0.839  0.2138  0.4109 -0.1883
 1744WAT     H1 7682   3.040   4.483   0.861  0.2124  1.2379 -0.4455
 1744WAT     H2 7683   2.949   4.527   0.769 -0.7983  1.3710  0.5950
 1744WAT    EPW 7684   2.967   4.484   0.832 -0.4635  0.0778  0.7367
 1745WAT      O 7685   2.336   3.214   5.328  0.2611 -0.2701  0.1958
 1745WAT     H1 7686   2.414   3.184   5.352  0.2504  0.4835  1.2779
 1745WAT     H2 7687   2.291   3.215   5.403 -0.1375  1.1596 -0.0282
 1745WAT    EPW 7688   2.341   3.210   5.343  0.1359  0.3787  0.0466
 1746WAT      O 7689   4.962   2.942   3.758 -0.0329 -0.4522 -0.3571
 1746WAT     H1 7690   4.914   2.988   3.701 -2.0874 -0.2784  1.4326
 1746WAT     H2 7691   4.928   2.862   3.754 -1.3858 -0.0644  1.7679
 1746WAT    EPW 7692   4.950   2.937   3.749 -0.2911 -0.4648 -0.2221
 1747WAT      O 7693   2.125   6.232   6.706 -0.7652  0.0137 -0.0671
 1747WAT     H1 7694   2.172   6.171   6.664 -0.5353  0.4709 -0.4731
 1747WAT     H2 7695   2.101   6.191   6.780  1.6654  0.3008  0.9682
 1747WAT    EPW 7696   2.128   6.217   6.711  0.1928  0.1878  0.3560
 1748WAT      O 7697   1.330   4.043   0.848 -0.3572  0.3655  0.1282
 1748WAT     H1 7698   1.399   4.096   0.853  0.7996 -1.1029  0.3623
 1748WAT     H2 7699   1.344   3.985   0.911 -1.1950 -0.6606 -0.5953
 1748WAT    EPW 7700   1.342   4.042   0.858 -0.3053  0.2415  0.2805
 1749WAT      O 7701   0.338   7.589   6.827 -0.3863  0.3738  0.0193
 1749WAT     H1 7702   0.296   7.513   6.834  0.5834 -0.4547 -2.0855
 1749WAT     H2 7703   0.298   7.641   6.884 -1.2615 -1.6331  1.3132
 1749WAT    EPW 7704   0.326   7.586   6.836 -0.2745 -0.1981  0.2556
 1750WAT      O 7705   4.884   2.097   4.393  0.8743  0.5216 -0.4956
 1750WAT     H1 7706   4.831   2.047   4.442  2.6437 -2.6142 -1.5355
 1750WAT     H2 7707   4.953   2.110   4.445  1.6930 -0.7279 -1.2252
 1750WAT    EPW 7708   4.886   2.092   4.408  0.2675 -0.0107  0.9359
 1751WAT      O 7709   4.954   1.860   4.760  0.0911  0.0279  0.0909
 1751WAT     H1 7710   4.933   1.868   4.845 -0.6699  0.8242 -0.1535
 1751WAT     H2 7711   4.958   1.773   4.749 -0.0203 -0.0928  0.8950
 1751WAT    EPW 7712   4.951   1.848   4.771 -0.2872 -0.4087  0.3373
 1752WAT      O 7713   5.876   0.246   3.888 -0.5613  0.2771 -0.2726
 1752WAT     H1 7714   5.829   0.269   3.818 -0.6513  0.5817 -0.1128
 1752WAT     H2 7715   5.855   0.162   3.899 -0.9865  0.3792 -0.2693
 1752WAT    EPW 7716   5.866   0.237   3.879  0.0760  0.3260 -0.3159
 1753WAT      O 7717   6.069   4.947   2.459  0.5988 -0.2924  0.0554
 1753WAT     H1 7718   6.062   4.933   2.545  1.2507  0.2364  0.2023
 1753WAT     H2 7719   6.001   4.999   2.442  1.7568  1.5643  0.7242
 1753WAT    EPW 7720   6.058   4.953   2.470  0.0192 -0.0107 -0.0232
 1754WAT      O 7721   5.177   2.157   3.378 -0.0856 -0.0050 -0.3999
 1754WAT     H1 7722   5.157   2.240   3.393 -0.5528 -0.6092  3.2841
 1754WAT     H2 7723   5.262   2.158   3.361  0.3819  1.1268  1.7153
 1754WAT    EPW 7724   5.186   2.169   3.378  0.1314  0.2380 -0.0491
 1755WAT      O 7725   4.918   7.601   2.016 -0.1607 -0.3332  0.3170
 1755WAT     H1 7726   4.946   7.523   1.989  0.6610  0.4139 -1.1370
 1755WAT     H2 7727   4.982   7.655   1.993 -1.0589  0.8845  0.5603
 1755WAT    EPW 7728   4.932   7.597   2.008  0.4845 -0.1771 -0.3071
 1756WAT      O 7729   0.447   7.302   3.957  0.4589 -0.2937 -0.0693
 1756WAT     H1 7730   0.409   7.245   4.010 -1.0187  0.6878 -0.0071
 1756WAT     H2 7731   0.470   7.254   3.888  2.0241 -1.5004  1.2249
 1756WAT    EPW 7732   0.445   7.286   3.954 -0.5859 -0.3494  0.4707
 1757WAT      O 7733   4.412   5.236   3.852 -0.3989 -0.3160 -0.0630
 1757WAT     H1 7734   4.420   5.268   3.771  1.3827  0.0531  0.1998
 1757WAT     H2 7735   4.468   5.285   3.898 -0.6378 -1.1745  1.1874
 1757WAT    EPW 7736   4.421   5.248   3.847  0.0459 -0.1025 -0.2775
 1758WAT      O 7737   3.909   7.460   6.504 -0.1730 -0.0334 -0.5649
 1758WAT     H1 7738   3.941   7.418   6.573  0.0786  0.9246 -0.0821
 1758WAT     H2 7739   3.915   7.401   6.440  2.0897 -0.1052 -0.3747
 1758WAT    EPW 7740   3.915   7.445   6.504 -0.2664 -0.2129  0.1238
 1759WAT      O 7741   1.203   0.715   3.361 -0.4051  0.0047 -0.0109
 1759WAT     H1 7742   1.172   0.638   3.334  1.6102 -1.1599  0.7443
 1759WAT     H2 7743   1.269   0.731   3.306 -0.3577  0.8594  0.2778
 1759WAT    EPW 7744   1.208   0.706   3.349  0.2795  0.3441  0.1856
 1760WAT      O 7745   4.806   2.673   5.545  0.1765  0.3540 -0.6544
 1760WAT     H1 7746   4.732   2.627   5.547  0.8494 -0.8428 -1.9131
 1760WAT     H2 7747   4.787   2.740   5.491  0.0543 -0.0577 -1.1330
 1760WAT    EPW 7748   4.792   2.676   5.537  0.1942  0.3484 -0.2262
 1761WAT      O 7749   2.742   5.961   0.216  0.4797  0.1091  0.3928
 1761WAT     H1 7750   2.657   5.966   0.201  0.1297 -2.8211  0.8076
 1761WAT     H2 7751   2.759   5.875   0.214  3.6846  0.6079 -0.9896
 1761WAT    EPW 7752   2.732   5.949   0.214 -0.5273 -0.1982  0.5728
 1762WAT      O 7753   7.446   5.260   6.403 -0.4307  0.2358 -0.3201
 1762WAT     H1 7754   7.367   5.226   6.388 -0.8637  2.2857 -3.7532
 1762WAT     H2 7755   7.497   5.214   6.349  0.0479  1.1770 -0.6709
 1762WAT    EPW 7756   7.442   5.248   6.393  0.6267 -0.4270  0.3304
 1763WAT      O 7757   0.871   1.674   1.735  0.3134  0.4487 -0.1545
 1763WAT     H1 7758   0.908   1.641   1.664 -0.3875  0.6572 -0.6382
 1763WAT     H2 7759   0.793   1.701   1.706 -0.6038 -0.8050  1.0033
 1763WAT    EPW 7760   0.865   1.673   1.720 -0.5091 -0.1431 -0.6079
 1764WAT      O 7761   7.494   4.434   5.114  0.0678 -0.3808 -0.0071
 1764WAT     H1 7762   7.503   4.467   5.194 -0.1981 -1.6422  0.5654
 1764WAT     H2 7763   7.539   4.489   5.064 -0.7359  1.0750  0.8230
 1764WAT    EPW 7764   7.502   4.447   5.118  0.8567  0.4659  0.4171
 1765WAT      O 7765   0.632   5.792   2.738  0.3364  0.1851 -0.3107
 1765WAT     H1 7766   0.586   5.778   2.665 -0.3038 -0.4775  0.1971
 1765WAT     H2 7767   0.644   5.711   2.770 -0.6095  0.5389  1.0376
 1765WAT    EPW 7768   0.627   5.778   2.732 -0.3922  0.0108  0.2506
 1766WAT      O 7769   6.410   5.900   3.014 -0.3667  0.1570 -0.3097
 1766WAT     H1 7770   6.458   5.944   2.955 -2.1945  1.2118 -1.0770
 1766WAT     H2 7771   6.371   5.838   2.967 -0.4369 -0.1473  0.1424
 1766WAT    EPW 7772   6.412   5.897   2.999 -0.1049  0.0539  0.1369
 1767WAT      O 7773   5.904   1.236   1.661 -0.4985 -0.0507 -0.2527
 1767WAT     H1 7774   5.912   1.313   1.621  1.4619 -0.0791 -0.0112
 1767WAT     H2 7775   5.825   1.240   1.698 -0.5298  1.7399 -0.4353
 1767WAT    EPW 7776   5.893   1.248   1.660  0.5030  0.0565 -1.1766
 1768WAT      O 7777   5.296   4.606   4.464 -0.1983 -0.0871 -0.4045
 1768WAT     H1 7778   5.257   4.679   4.435  0.6102  0.9908  1.0861
 1768WAT     H2 7779   5.371   4.604   4.419 -0.5492 -0.4215 -0.9846
 1768WAT    EPW 7780   5.301   4.616   4.453  0.1598 -0.0883 -0.3800
 1769WAT      O 7781   3.179   1.756   6.517  0.1493 -0.1240  0.4326
 1769WAT     H1 7782   3.208   1.798   6.588  0.7996 -0.1807  0.2017
 1769WAT     H2 7783   3.169   1.674   6.545 -0.8155  0.1009  0.7959
 1769WAT    EPW 7784   3.182   1.750   6.532 -0.9004 -0.0514  0.2217
 1770WAT      O 7785   1.712   6.934   7.074  1.2216  0.0677  0.0213
 1770WAT     H1 7786   1.722   6.951   7.159 -0.5736  2.0258 -0.0805
 1770WAT     H2 7787   1.761   6.863   7.062  2.9642  0.7504  2.2966
 1770WAT    EPW 7788   1.721   6.926   7.085 -0.3559  0.4518 -0.7339
 1771WAT      O 7789   1.543   1.153   1.847  0.3879 -0.2601 -0.2818
 1771WAT     H1 7790   1.499   1.215   1.803 -0.9247 -0.9080  0.0434
 1771WAT     H2 7791   1.590   1.198   1.905  0.7864  0.5097 -1.1738
 1771WAT    EPW 7792   1.543   1.169   1.849 -0.4687 -0.1605  0.1780
 1772WAT      O 7793   3.058   6.004   1.951  0.1245 -0.2270  0.1497
 1772WAT     H1 7794   3.018   6.009   1.874  2.1430  2.1472 -0.8838
 1772WAT     H2 7795   2.997   6.027   2.008 -0.2771  2.6013 -1.2765
 1772WAT    EPW 7796   3.043   6.008   1.948  0.0133  0.3907 -0.2567
 1773WAT      O 7797   0.743   5.491   3.067  0.3495  0.3538  0.0000
 1773WAT     H1 7798   0.780   5.565   3.095 -0.8141  1.2161 -0.6390
 1773WAT     H2 7799   0.667   5.489   3.109  0.2929 -0.3894 -0.1301
 1773WAT    EPW 7800   0.738   5.502   3.077  0.1622 -0.2478  0.8468
 1774WAT      O 7801   7.009   0.344   4.344 -0.3047  0.5485  0.4186
 1774WAT     H1 7802   6.996   0.259   4.357 -0.6881  0.4079 -0.7659
 1774WAT     H2 7803   7.011   0.352   4.257 -0.4508  1.7737  0.5062
 1774WAT    EPW 7804   7.007   0.333   4.333  0.5596  0.3670 -0.2582
 1775WAT      O 7805   0.484   3.360   7.249  0.7098 -0.0551  0.6991
 1775WAT     H1 7806   0.511   3.443   7.242  1.1397 -0.1128  1.5585
 1775WAT     H2 7807   0.434   3.361   7.321  2.3515 -0.9412  1.9170
 1775WAT    EPW 7808   0.480   3.373   7.259 -0.3072  0.2199 -0.0734
 1776WAT      O 7809   1.714   3.294   0.580 -0.4253  0.2731 -0.7666
 1776WAT     H1 7810   1.675   3.359   0.623  0.0949 -0.4004  0.7743
 1776WAT     H2 7811   1.683   3.222   0.618 -0.5372 -0.3832 -2.0522
 1776WAT    EPW 7812   1.704   3.293   0.592 -0.2642  0.2712  0.1726
 1777WAT      O 7813   3.434   1.843   4.831 -0.0532  0.0862 -0.7307
 1777WAT     H1 7814   3.439   1.852   4.917 -0.3557 -0.5985 -0.6391
 1777WAT     H2 7815   3.408   1.922   4.804  1.2875  0.7001 -0.3268
 1777WAT    EPW 7816   3.431   1.856   4.839  0.0964  0.2217 -0.2654
 1778WAT      O 7817   0.562   1.032   6.761 -0.3479 -0.1391  0.0533
 1778WAT     H1 7818   0.501   1.076   6.805 -0.6311 -1.2576  0.8222
 1778WAT     H2 7819   0.550   1.057   6.678 -0.0328  1.7533  0.5292
 1778WAT    EPW 7820   0.552   1.042   6.755  0.0960  0.1453  0.1752
 1779WAT      O 7821   2.107   1.295   4.152 -0.0137 -0.3791  0.3029
 1779WAT     H1 7822   2.169   1.275   4.210  1.5368  1.4837 -0.6188
 1779WAT     H2 7823   2.136   1.261   4.078 -1.1125 -1.1978  0.2147
 1779WAT    EPW 7824   2.120   1.287   4.150  0.1946  0.1025 -0.2908
 1780WAT      O 7825   1.909   7.258   1.913 -0.1906  0.4041  0.5006
 1780WAT     H1 7826   1.945   7.185   1.884  0.8971  0.2410  2.1517
 1780WAT     H2 7827   1.972   7.318   1.906 -0.8796  1.0712 -0.2891
 1780WAT    EPW 7828   1.923   7.256   1.908 -0.3060  0.2577 -0.7341
 1781WAT      O 7829   4.608   5.266   0.957  0.2912 -0.0976 -0.0361
 1781WAT     H1 7830   4.595   5.344   0.919  0.3146  0.2026  0.5556
 1781WAT     H2 7831   4.616   5.212   0.890  2.7465  0.7883 -0.5834
 1781WAT    EPW 7832   4.607   5.270   0.941  0.1552  0.0416  0.3576
 1782WAT      O 7833   7.567   4.936   5.430 -0.3267 -0.2713 -0.3034
 1782WAT     H1 7834   7.599   4.863   5.466 -0.2086 -0.0385  0.0703
 1782WAT     H2 7835   7.633   4.964   5.380 -0.4319 -0.5051 -0.5796
 1782WAT    EPW 7836   7.582   4.929   5.428 -0.3579 -0.4432  0.1879
 1783WAT      O 7837   0.146   6.997   6.105 -0.0398  0.7070 -0.0688
 1783WAT     H1 7838   0.095   6.990   6.034 -0.1559  0.6112  0.0248
 1783WAT     H2 7839   0.218   7.035   6.074 -0.4657  1.5537 -0.0570
 1783WAT    EPW 7840   0.149   7.002   6.090  0.3876  0.1261  0.0777
 1784WAT      O 7841   6.570   6.587   1.145  0.1048  0.0717 -0.2082
 1784WAT     H1 7842   6.498   6.551   1.112 -0.1594 -1.1935  1.5724
 1784WAT     H2 7843   6.629   6.523   1.138  0.4675  0.3604  0.2015
 1784WAT    EPW 7844   6.568   6.572   1.139  0.0973 -0.3702  0.6639
 1785WAT      O 7845   4.306   5.745   3.014  0.3696  0.0628 -0.3591
 1785WAT     H1 7846   4.312   5.700   3.088 -0.8956 -0.6863 -0.6773
 1785WAT     H2 7847   4.388   5.770   2.998  0.6961 -0.0078  1.1257
 1785WAT    EPW 7848   4.319   5.742   3.022  0.2846 -0.1931  0.0910
 1786WAT      O 7849   1.399   4.730   5.935 -0.2790  0.1643  0.1536
 1786WAT     H1 7850   1.323   4.689   5.944 -0.4541  0.4359 -0.0536
 1786WAT     H2 7851   1.456   4.665   5.924 -0.4719 -0.0437  0.3495
 1786WAT    EPW 7852   1.396   4.714   5.935  0.4953  0.7787 -0.5000
 1787WAT      O 7853   6.833   1.901   3.655 -0.2573 -0.2302  0.1316
 1787WAT     H1 7854   6.894   1.938   3.705 -0.3462  0.7076 -0.4134
 1787WAT     H2 7855   6.791   1.970   3.622 -0.2151 -0.8167 -1.1933
 1787WAT    EPW 7856   6.836   1.917   3.657  0.5896 -0.2294 -0.1482
 1788WAT      O 7857   6.770   6.926   1.503  0.3827  0.1106 -0.0926
 1788WAT     H1 7858   6.817   6.924   1.576  0.3440  0.8940 -0.0390
 1788WAT     H2 7859   6.820   6.970   1.447 -0.5791  1.7224  0.2170
 1788WAT    EPW 7860   6.784   6.932   1.506  0.1817  0.2042 -0.2762
 1789WAT      O 7861   0.558   2.543   1.507  0.3198 -0.4153 -0.3499
 1789WAT     H1 7862   0.521   2.465   1.491 -0.1769 -0.4432  0.8289
 1789WAT     H2 7863   0.531   2.562   1.587  1.3858  0.4474 -0.1758
 1789WAT    EPW 7864   0.548   2.534   1.516  0.2182  0.3850 -0.2684
 1790WAT      O 7865   6.827   4.500   3.156 -0.3110 -0.8100  0.3118
 1790WAT     H1 7866   6.872   4.508   3.081  1.0210  0.9072  1.2254
 1790WAT     H2 7867   6.775   4.571   3.156  0.3370 -0.3152  1.3866
 1790WAT    EPW 7868   6.826   4.512   3.145  0.0938  0.3381 -0.3163
 1791WAT      O 7869   4.490   3.195   4.983  0.0151  0.3170 -0.1088
 1791WAT     H1 7870   4.551   3.163   4.929 -1.3326  0.6210 -1.9042
 1791WAT     H2 7871   4.506   3.281   4.983  2.1558  0.0783  2.8389
 1791WAT    EPW 7872   4.502   3.203   4.975  0.2811  0.1631  0.0628
 1792WAT      O 7873   4.483   6.349   6.684  0.0143  0.6215 -0.3576
 1792WAT     H1 7874   4.523   6.395   6.622 -0.6470 -0.4618 -1.6564
 1792WAT     H2 7875   4.532   6.277   6.692 -0.9472 -0.1404 -1.0689
 1792WAT    EPW 7876   4.496   6.345   6.676  0.1647  0.3378  0.1401
 1793WAT      O 7877   3.267   2.627   7.381 -0.4228  0.3961 -0.0304
 1793WAT     H1 7878   3.316   2.700   7.383  1.0417 -0.5383 -0.4721
 1793WAT     H2 7879   3.312   2.574   7.329 -1.9250 -0.5324 -0.4293
 1793WAT    EPW 7880   3.281   2.630   7.374  0.6817 -0.6594  0.3643
 1794WAT      O 7881   6.535   1.033   3.789 -0.3943 -0.3129 -0.3044
 1794WAT     H1 7882   6.520   0.963   3.741  0.0158 -0.6601  0.0570
 1794WAT     H2 7883   6.594   1.005   3.848 -2.0770 -0.3799  1.4613
 1794WAT    EPW 7884   6.542   1.019   3.791  0.0130  0.7941  0.2861
 1795WAT      O 7885   5.303   0.866   4.623 -0.2693  0.5804 -0.2105
 1795WAT     H1 7886   5.333   0.947   4.636 -0.9529  0.5037  2.3728
 1795WAT     H2 7887   5.351   0.818   4.679 -2.1055 -0.2272  0.7543
 1795WAT    EPW 7888   5.315   0.871   4.633 -0.1811  0.3151  0.2844
 1796WAT      O 7889   4.193   5.005   2.741 -0.7517 -0.2574 -0.1732
 1796WAT     H1 7890   4.247   4.966   2.797 -2.6999 -0.8109  1.4249
 1796WAT     H2 7891   4.155   4.939   2.699  0.2414  0.1391 -1.7731
 1796WAT    EPW 7892   4.195   4.990   2.743 -0.4439 -0.2096  0.3600
 1797WAT      O 7893   4.132   3.426   7.478  0.1996 -0.4102  0.5853
 1797WAT     H1 7894   4.063   3.373   7.477 -1.7225  1.8042  2.2720
 1797WAT     H2 7895   4.102   3.498   7.438  1.9760  0.1861  0.2481
 1797WAT    EPW 7896   4.117   3.429   7.472  0.5654  0.2571 -0.1193
 1798WAT      O 7897   4.170   3.873   0.549 -0.0744 -0.0663  0.3277
 1798WAT     H1 7898   4.223   3.894   0.483 -3.2526  2.2817 -1.7590
 1798WAT     H2 7899   4.215   3.897   0.620  3.2883 -2.2256 -0.8213
 1798WAT    EPW 7900   4.184   3.879   0.550  0.0904 -0.2531 -0.3952
 1799WAT      O 7901   6.423   3.575   2.676 -0.2451  0.5901  0.1764
 1799WAT     H1 7902   6.365   3.640   2.676 -0.4106  0.4423  0.1076
 1799WAT     H2 7903   6.456   3.577   2.757  0.5429  1.4662 -0.1389
 1799WAT    EPW 7904   6.419   3.585   2.688 -0.3150  0.2218 -0.7201
 1800WAT      O 7905   2.890   5.207   5.634 -0.4075  0.4131 -0.2721
 1800WAT     H1 7906   2.854   5.236   5.708  1.8510  1.2541  0.5934
 1800WAT     H2 7907   2.866   5.266   5.575  0.1756  1.4254  0.4633
 1800WAT    EPW 7908   2.881   5.220   5.636 -0.1213 -0.5399 -0.4382
 1801WAT      O 7909   4.824   5.613   0.644 -0.1155 -0.2647 -0.1883
 1801WAT     H1 7910   4.852   5.601   0.726 -1.6937  1.2397  0.6579
 1801WAT     H2 7911   4.762   5.552   0.635 -1.1987  0.6990  0.4478
 1801WAT    EPW 7912   4.819   5.602   0.655  0.0833  0.8106 -0.3525
 1802WAT      O 7913   6.189   1.269   6.097  0.1882 -0.1354  0.7088
 1802WAT     H1 7914   6.262   1.238   6.061  0.6443  0.6689  0.9192
 1802WAT     H2 7915   6.215   1.297   6.175 -0.5144 -0.5759  1.1063
 1802WAT    EPW 7916   6.204   1.268   6.103  0.3909  0.9227  0.5428
 1803WAT      O 7917   6.197   0.565   2.660  0.0917  0.0173 -0.0614
 1803WAT     H1 7918   6.168   0.646   2.677 -1.2185 -0.6641  1.0819
 1803WAT     H2 7919   6.156   0.544   2.586  0.2944  0.3170 -0.2629
 1803WAT    EPW 7920   6.186   0.574   2.652  0.1466 -0.0736 -0.2954
 1804WAT      O 7921   7.142   4.748   3.187 -0.0632 -0.0176  0.2171
 1804WAT     H1 7922   7.075   4.802   3.204 -0.9522 -0.7891 -0.6865
 1804WAT     H2 7923   7.144   4.745   3.100 -0.4535 -1.8916  0.2298
 1804WAT    EPW 7924   7.132   4.755   3.177  0.0750  0.1760 -0.8374
 1805WAT      O 7925   0.870   7.302   7.334  0.0199  0.2758  0.3882
 1805WAT     H1 7926   0.823   7.373   7.313 -0.1470 -0.4461 -2.0029
 1805WAT     H2 7927   0.810   7.243   7.355  0.1024  0.5233  1.3424
 1805WAT    EPW 7928   0.854   7.304   7.334  0.2274 -0.3524 -0.4110
 1806WAT      O 7929   1.236   6.725   1.954 -0.1997  0.3157  0.0862
 1806WAT     H1 7930   1.191   6.773   2.013 -1.1074 -1.6190  1.0642
 1806WAT     H2 7931   1.174   6.676   1.917  0.6618  0.0844 -1.0867
 1806WAT    EPW 7932   1.220   6.725   1.957  1.0516 -0.0280  1.0044
 1807WAT      O 7933   4.768   3.638   4.589  0.1955  0.2752 -0.6536
 1807WAT     H1 7934   4.816   3.579   4.632 -0.3254  0.9216  0.8543
 1807WAT     H2 7935   4.751   3.598   4.513  0.6684 -1.1283 -0.0616
 1807WAT    EPW 7936   4.773   3.623   4.584  0.3626 -0.3649  0.4182
 1808WAT      O 7937   7.223   3.199   6.131  0.0533  0.1558  0.2151
 1808WAT     H1 7938   7.293   3.249   6.143  0.7813 -0.8849  0.4901
 1808WAT     H2 7939   7.214   3.196   6.044  0.3550  0.3089  0.1771
 1808WAT    EPW 7940   7.232   3.206   6.120  0.1413 -0.5720 -0.4716
 1809WAT      O 7941   5.753   0.217   0.673  0.2267  0.1810  0.4197
 1809WAT     H1 7942   5.719   0.188   0.748  2.3163  0.7191  1.6540
 1809WAT     H2 7943   5.839   0.210   0.685  0.6644  1.6200 -1.3931
 1809WAT    EPW 7944   5.761   0.211   0.686  0.0227  0.2338 -0.0448
 1810WAT      O 7945   6.015   4.013   0.032  0.2255 -0.6703  0.1674
 1810WAT     H1 7946   5.928   4.016   0.040  0.3202  0.2370  1.1545
 1810WAT     H2 7947   6.028   4.012  -0.054 -0.7451  1.2023 -0.0601
 1810WAT    EPW 7948   6.004   4.013   0.021 -0.6109 -0.1767  0.8424
 1811WAT      O 7949   6.304   0.912   7.051 -0.0854  0.3760  0.2642
 1811WAT     H1 7950   6.279   0.986   7.013 -0.3343  0.6754  0.9878
 1811WAT     H2 7951   6.234   0.860   7.045 -0.2459  0.5463  0.6060
 1811WAT    EPW 7952   6.290   0.915   7.045  0.1352  0.3939 -0.6105
 1812WAT      O 7953   2.702   2.362   5.074 -0.1921  0.1022  0.0400
 1812WAT     H1 7954   2.644   2.418   5.106  0.6709  0.8187  0.3859
 1812WAT     H2 7955   2.710   2.385   4.991 -0.4817 -0.0582 -0.0303
 1812WAT    EPW 7956   2.695   2.374   5.067 -0.1957 -0.3463  0.1999
 1813WAT      O 7957   4.178   0.950   0.826 -0.0179 -0.5631  0.1670
 1813WAT     H1 7958   4.227   1.021   0.838  1.0718 -1.5763  2.1747
 1813WAT     H2 7959   4.183   0.936   0.740  1.8049  0.3803  0.0769
 1813WAT    EPW 7960   4.186   0.958   0.815 -0.4352 -0.8246 -0.5368
 1814WAT      O 7961   1.576   2.675   5.058  0.1317 -0.4159  0.1829
 1814WAT     H1 7962   1.613   2.751   5.037 -1.7067  0.8194  1.1431
 1814WAT     H2 7963   1.510   2.698   5.111 -1.3882 -2.5446 -0.6545
 1814WAT    EPW 7964   1.572   2.689   5.063  0.2108 -0.1610  0.0411
 1815WAT      O 7965   0.770   1.567   6.391 -0.0550 -0.6038 -0.3815
 1815WAT     H1 7966   0.708   1.566   6.452 -1.4250  1.5829 -1.5871
 1815WAT     H2 7967   0.823   1.632   6.417 -0.1352 -0.2744 -1.0128
 1815WAT    EPW 7968   0.769   1.577   6.404  0.3586 -0.2174  0.1063
 1816WAT      O 7969   5.560   5.459   2.094  0.9026 -0.1520 -0.0829
 1816WAT     H1 7970   5.596   5.535   2.119 -1.1909  0.7495  0.3648
 1816WAT     H2 7971   5.483   5.482   2.062  1.3793 -1.8291 -2.7478
 1816WAT    EPW 7972   5.554   5.474   2.093  0.8333 -0.1544 -0.1502
 1817WAT      O 7973   0.482   7.556   3.879 -0.1643  0.0371  0.2737
 1817WAT     H1 7974   0.467   7.476   3.909 -1.1940 -0.3343 -1.1508
 1817WAT     H2 7975   0.415   7.603   3.910 -0.3526  0.0175 -0.1030
 1817WAT    EPW 7976   0.470   7.551   3.888 -0.1708  0.0103  0.1616
 1818WAT      O 7977   5.160   5.262   6.926  0.1451  0.1406 -0.4330
 1818WAT     H1 7978   5.154   5.301   6.848 -1.3830  0.1869 -0.3266
 1818WAT     H2 7979   5.153   5.177   6.907 -3.5194  0.2540 -0.1749
 1818WAT    EPW 7980   5.158   5.255   6.912  0.1483 -0.1053  0.1340
 1819WAT      O 7981   7.216   0.123   5.556 -0.5123  0.2555  0.5265
 1819WAT     H1 7982   7.174   0.047   5.566  1.5568 -1.0817 -0.2894
 1819WAT     H2 7983   7.256   0.135   5.633  0.3201 -0.2612  0.1860
 1819WAT    EPW 7984   7.216   0.113   5.569  0.0779  0.5580  0.0439
 1820WAT      O 7985   7.631   3.277   6.869  0.5961  0.4902  0.0257
 1820WAT     H1 7986   7.621   3.348   6.818 -1.0540 -0.3347 -0.9208
 1820WAT     H2 7987   7.578   3.293   6.936 -0.9309 -0.3833 -0.8983
 1820WAT    EPW 7988   7.622   3.290   6.871 -0.5727  0.7256 -0.3941
 1821WAT      O 7989   1.473   5.773   6.005  0.3051 -0.5923 -0.6598
 1821WAT     H1 7990   1.475   5.847   5.959 -1.0847 -0.4966 -0.6247
 1821WAT     H2 7991   1.551   5.738   5.991  1.0992  0.9983 -0.4667
 1821WAT    EPW 7992   1.485   5.779   5.996  0.9817  0.4034  0.4965
 1822WAT      O 7993   0.382   3.223   1.244  0.2113  0.2300  0.0982
 1822WAT     H1 7994   0.332   3.292   1.261  1.2534  0.6669  1.5787
 1822WAT     H2 7995   0.355   3.197   1.165 -1.1555  1.4624  0.1140
 1822WAT    EPW 7996   0.371   3.229   1.235 -0.0594 -0.2041  1.0558
 1823WAT      O 7997   4.762   6.962   4.137  0.3079  0.4848  0.4601
 1823WAT     H1 7998   4.808   6.931   4.069  1.6564  0.6714  1.2407
 1823WAT     H2 7999   4.754   7.047   4.118  0.8997  0.5867  0.6263
 1823WAT    EPW 8000   4.768   6.970   4.124 -0.2375 -0.0873 -0.4041
 1824WAT      O 8001   3.777   5.926   6.419 -0.4878  0.2849 -0.6519
 1824WAT     H1 8002   3.790   5.912   6.504  0.2996 -0.4273 -0.8864
 1824WAT     H2 8003   3.723   5.995   6.418 -0.2584  0.4938  0.4127
 1824WAT    EPW 8004   3.771   5.934   6.431  0.1876 -0.2059  0.4328
 1825WAT      O 8005   5.543   3.000   1.779 -0.2450  0.2878 -0.2029
 1825WAT     H1 8006   5.619   2.957   1.773 -0.3902  0.1212 -0.9654
 1825WAT     H2 8007   5.483   2.937   1.779 -0.3423  0.2074  3.3231
 1825WAT    EPW 8008   5.545   2.984   1.778 -0.7433  0.6824  0.0606
 1826WAT      O 8009   1.927   4.672   5.502 -0.9903 -0.1026 -0.0907
 1826WAT     H1 8010   1.993   4.723   5.529 -0.1812  0.0564 -2.1808
 1826WAT     H2 8011   1.897   4.637   5.576  1.2976 -0.0190  0.9705
 1826WAT    EPW 8012   1.932   4.675   5.517 -0.6964 -0.1471  0.0088
 1827WAT      O 8013   5.554   1.838   2.779 -0.0753 -0.3579  0.1537
 1827WAT     H1 8014   5.496   1.861   2.718 -2.0249 -0.8687  1.7145
 1827WAT     H2 8015   5.539   1.895   2.844  2.9043  1.0995 -0.2457
 1827WAT    EPW 8016   5.543   1.850   2.780  0.0270  0.2258  0.5256
 1828WAT      O 8017   6.042   1.929   6.345 -0.3853 -0.3827 -0.2043
 1828WAT     H1 8018   6.102   1.931   6.408 -1.2722  0.4985  0.6716
 1828WAT     H2 8019   6.078   1.882   6.282  0.7954 -0.7389  0.7166
 1828WAT    EPW 8020   6.056   1.922   6.345 -0.2612 -0.3059  0.0583
 1829WAT      O 8021   6.392   5.106   5.447  0.0293 -0.3135 -0.0658
 1829WAT     H1 8022   6.309   5.080   5.443  0.6369 -2.2328 -1.7407
 1829WAT     H2 8023   6.407   5.140   5.368  1.0138 -0.6082 -0.0185
 1829WAT    EPW 8024   6.382   5.107   5.435 -0.2126  0.6614  0.2867
 1830WAT      O 8025   5.352   1.635   4.575 -0.5620 -0.6683  0.2232
 1830WAT     H1 8026   5.371   1.713   4.611  0.7522 -1.1105  0.5543
 1830WAT     H2 8027   5.267   1.640   4.558 -1.1384 -0.2005  2.8738
 1830WAT    EPW 8028   5.343   1.648   4.578  0.4130  0.7276  0.2530
 1831WAT      O 8029   7.540   5.875   3.836 -0.0228  0.3082 -0.1438
 1831WAT     H1 8030   7.461   5.914   3.829 -0.4277 -0.7907 -3.4870
 1831WAT     H2 8031   7.580   5.922   3.897 -2.2150  2.8757 -0.4752
 1831WAT    EPW 8032   7.534   5.888   3.844 -0.1286 -0.0768  0.3577
 1832WAT      O 8033   6.467   0.401   2.864  0.3237  0.3134  0.0692
 1832WAT     H1 8034   6.468   0.488   2.857 -1.5470  0.3566 -0.0890
 1832WAT     H2 8035   6.383   0.382   2.873  0.7139 -1.4858  0.2962
 1832WAT    EPW 8036   6.455   0.411   2.865 -0.0287 -0.7559 -0.0577
 1833WAT      O 8037   1.710   3.429   1.440 -0.0777 -0.1989  0.5018
 1833WAT     H1 8038   1.719   3.344   1.424  1.1373 -0.1216  0.7119
 1833WAT     H2 8039   1.643   3.432   1.496 -1.8569 -0.7770 -1.4729
 1833WAT    EPW 8040   1.701   3.417   1.446 -0.3366 -0.4091  0.1035
 1834WAT      O 8041   5.982   6.748   0.514 -0.1596  0.7562  0.4493
 1834WAT     H1 8042   5.925   6.716   0.571  0.4001  1.0698  1.1957
 1834WAT     H2 8043   5.947   6.823   0.489 -0.1889  0.8352  0.7260
 1834WAT    EPW 8044   5.968   6.754   0.518 -0.6292  0.0971  0.3113
 1835WAT      O 8045   0.851   6.044   2.380  0.3477 -0.4346  0.3323
 1835WAT     H1 8046   0.820   6.119   2.348  0.6342 -0.0982  0.8295
 1835WAT     H2 8047   0.821   6.042   2.462  2.0708  0.1756  1.0154
 1835WAT    EPW 8048   0.842   6.055   2.388  0.0636 -0.1913 -0.0848
 1836WAT      O 8049   5.738   0.006   4.568 -0.0061  0.1140 -0.6813
 1836WAT     H1 8050   5.765   0.074   4.615 -2.3785  0.0462  0.9560
 1836WAT     H2 8051   5.768   0.023   4.488  1.8005  1.6549  0.2467
 1836WAT    EPW 8052   5.746   0.018   4.563 -0.1963 -0.3670 -0.1091
 1837WAT      O 8053   6.727   6.862   5.322 -0.2425 -0.5137  0.0227
 1837WAT     H1 8054   6.743   6.882   5.406 -1.4498 -0.6903  0.3064
 1837WAT     H2 8055   6.647   6.895   5.308  0.4863  0.7360 -1.4713
 1837WAT    EPW 8056   6.718   6.870   5.332  0.2674  0.2850  0.0915
 1838WAT      O 8057   4.629   5.203   5.235 -0.2743 -0.1173  0.4271
 1838WAT     H1 8058   4.642   5.244   5.311 -1.7806 -3.1008  2.5034
 1838WAT     H2 8059   4.708   5.172   5.216  0.3481  1.5533  0.1239
 1838WAT    EPW 8060   4.643   5.204   5.244 -0.5208 -1.0856 -0.0404
 1839WAT      O 8061   2.492   4.958   4.927 -0.3589 -0.5615  0.1104
 1839WAT     H1 8062   2.439   5.005   4.978 -0.7467  0.5404 -1.2439
 1839WAT     H2 8063   2.523   4.897   4.981 -2.3191 -0.7236  1.1587
 1839WAT    EPW 8064   2.489   4.956   4.943  0.2808 -0.1684  0.2943
 1840WAT      O 8065   3.320   6.015   5.689  0.1687  0.5024 -0.5106
 1840WAT     H1 8066   3.405   6.027   5.705 -0.1815  1.1016  1.1494
 1840WAT     H2 8067   3.288   6.096   5.691 -0.5513  0.2197 -0.3959
 1840WAT    EPW 8068   3.328   6.029   5.692 -0.0130 -0.0121  0.2289
 1841WAT      O 8069   3.557   2.627   0.154  0.5036 -0.4053 -0.6272
 1841WAT     H1 8070   3.627   2.574   0.155  1.1442  0.3772  2.0532
 1841WAT     H2 8071   3.581   2.691   0.099  1.7347 -0.3680 -0.0765
 1841WAT    EPW 8072   3.571   2.629   0.146 -0.6392 -0.3222  0.0588
 1842WAT      O 8073   5.188   1.282   6.468  0.0924  0.7681  0.9046
 1842WAT     H1 8074   5.188   1.330   6.541 -2.8491  3.4807 -0.6508
 1842WAT     H2 8075   5.219   1.337   6.408 -0.3201 -0.4068 -0.4275
 1842WAT    EPW 8076   5.193   1.297   6.470  0.1617 -0.5083 -0.0800
 1843WAT      O 8077   1.528   2.916   7.206 -0.5427 -0.3025 -0.1077
 1843WAT     H1 8078   1.544   2.934   7.290 -0.0050  0.6123 -0.4007
 1843WAT     H2 8079   1.488   2.987   7.177 -2.6506 -1.4150 -0.1307
 1843WAT    EPW 8080   1.524   2.929   7.214 -0.2127 -0.2016 -0.4032
 1844WAT      O 8081   2.687   1.418   3.224  0.5281  0.2491  0.1279
 1844WAT     H1 8082   2.609   1.446   3.250  1.1164  1.1981  0.9406
 1844WAT     H2 8083   2.682   1.332   3.233 -0.0199  0.3864  1.3698
 1844WAT    EPW 8084   2.675   1.410   3.229  0.4279 -0.4439 -0.1704
 1845WAT      O 8085   2.211   1.983   4.885 -0.1139  0.0687 -0.2354
 1845WAT     H1 8086   2.238   2.050   4.836  0.7613  0.8820  1.2756
 1845WAT     H2 8087   2.283   1.959   4.928 -0.6686 -1.1396  0.0688
 1845WAT    EPW 8088   2.226   1.990   4.884 -0.4179  0.9223  1.1744
 1846WAT      O 8089   7.318   6.666   2.248 -0.3290 -0.4677  0.2447
 1846WAT     H1 8090   7.243   6.633   2.279 -0.7590 -0.1607 -0.4348
 1846WAT     H2 8091   7.302   6.751   2.240  0.2892 -0.3073  0.6180
 1846WAT    EPW 8092   7.305   6.674   2.251  0.0246 -0.3559  0.1726
 1847WAT      O 8093   5.126   5.138   6.115  0.7229  0.2854  0.4311
 1847WAT     H1 8094   5.117   5.060   6.151 -0.5106  0.3394  0.2804
 1847WAT     H2 8095   5.044   5.163   6.097  0.9824  2.0957  1.4837
 1847WAT    EPW 8096   5.112   5.130   6.117  0.4226  0.5010 -0.1576
 1848WAT      O 8097   0.910   7.034   3.918  0.0328 -0.0344  0.5325
 1848WAT     H1 8098   0.976   7.055   3.866  0.5024  1.1982  1.5911
 1848WAT     H2 8099   0.854   7.100   3.909  0.3759  0.5011  1.9616
 1848WAT    EPW 8100   0.911   7.047   3.909  0.2782 -0.3566  0.4830
 1849WAT      O 8101   6.716   3.527   2.574 -0.2970 -0.2631 -0.2746
 1849WAT     H1 8102   6.775   3.491   2.628 -0.4315  0.4848  0.3900
 1849WAT     H2 8103   6.656   3.464   2.564 -0.4718 -0.2882  0.7731
 1849WAT    EPW 8104   6.716   3.512   2.580 -0.3331 -0.1624 -0.2766
 1850WAT      O 8105   0.337   6.317   6.567 -0.7574  0.3324 -0.9086
 1850WAT     H1 8106   0.380   6.241   6.566 -1.3457 -0.0490 -2.9429
 1850WAT     H2 8107   0.399   6.375   6.547 -0.3184  0.3972  0.5893
 1850WAT    EPW 8108   0.353   6.314   6.564 -0.2130  0.2938 -0.0025
 1851WAT      O 8109   1.578   3.883   0.626 -0.4943 -0.0539 -0.0732
 1851WAT     H1 8110   1.545   3.949   0.579  1.2968  1.8725  1.1887
 1851WAT     H2 8111   1.516   3.866   0.684 -1.5679 -0.5069 -1.3124
 1851WAT    EPW 8112   1.564   3.890   0.627  0.1850  0.2979  0.3568
 1852WAT      O 8113   7.621   3.561   2.667  0.4650 -0.2313  0.6531
 1852WAT     H1 8114   7.576   3.629   2.635  1.3526  0.1578  0.1954
 1852WAT     H2 8115   7.626   3.507   2.599 -0.3010 -0.8129  1.0371
 1852WAT    EPW 8116   7.615   3.563   2.652  0.3223 -0.0006 -0.3767
 1853WAT      O 8117   6.449   3.522   2.228  0.2527  0.3458  0.7656
 1853WAT     H1 8118   6.485   3.462   2.282 -0.6100 -1.3050 -0.3982
 1853WAT     H2 8119   6.364   3.501   2.228 -0.1797  1.9743  0.7503
 1853WAT    EPW 8120   6.442   3.510   2.236  0.4218  0.1745  0.5404
 1854WAT      O 8121   2.869   4.034   3.621  0.0366  0.2162  1.0721
 1854WAT     H1 8122   2.846   3.951   3.611  1.0133  0.1010 -0.6628
 1854WAT     H2 8123   2.948   4.038   3.586 -0.8297  2.3008 -0.9181
 1854WAT    EPW 8124   2.877   4.022   3.615  0.0873  0.1116 -0.3067
 1855WAT      O 8125   2.616   4.131   6.432  0.3617 -0.1448 -0.0119
 1855WAT     H1 8126   2.634   4.214   6.451 -1.1970  0.8687 -2.5214
 1855WAT     H2 8127   2.563   4.106   6.497  1.1488  0.6399  0.9726
 1855WAT    EPW 8128   2.611   4.139   6.445 -0.2117  0.0190  0.6249
 1856WAT      O 8129   7.433   7.476   1.735 -0.1757 -0.2050 -0.0219
 1856WAT     H1 8130   7.346   7.477   1.740 -0.4358 -2.3588 -2.2752
 1856WAT     H2 8131   7.449   7.415   1.675  2.8738  0.8604 -0.4320
 1856WAT    EPW 8132   7.422   7.467   1.727  0.0421  0.8445 -0.4470
 1857WAT      O 8133   6.205   4.308   4.134 -0.6806  0.3347 -0.3473
 1857WAT     H1 8134   6.161   4.312   4.059 -1.1501 -0.4434 -0.1277
 1857WAT     H2 8135   6.171   4.373   4.181 -2.8130 -1.1909  0.4125
 1857WAT    EPW 8136   6.193   4.318   4.130  0.1093 -0.3937 -0.3264
 1858WAT      O 8137   0.082   6.422   4.252 -0.4440  1.0448  0.0148
 1858WAT     H1 8138   0.165   6.441   4.233 -0.0875 -1.2995 -1.0450
 1858WAT     H2 8139   0.078   6.434   4.338  1.1520  0.6886  0.1777
 1858WAT    EPW 8140   0.094   6.427   4.262 -0.0639  0.0586  0.4321
 1859WAT      O 8141   4.264   4.138   3.832 -0.0281  0.4332 -0.0821
 1859WAT     H1 8142   4.276   4.072   3.887 -1.2993 -1.1705 -1.5906
 1859WAT     H2 8143   4.282   4.103   3.754  2.2176  2.7276 -0.7592
 1859WAT    EPW 8144   4.269   4.123   3.828  0.2183 -0.1817  0.0686
 1860WAT      O 8145   3.091   4.245   1.646  0.0968 -0.2107 -0.2860
 1860WAT     H1 8146   3.172   4.249   1.615  0.1844  0.8766  0.0435
 1860WAT     H2 8147   3.064   4.328   1.646 -0.7946 -0.4768  0.1964
 1860WAT    EPW 8148   3.099   4.258   1.642 -0.1497  0.0374  0.1571
 1861WAT      O 8149   3.088   7.195   2.841  0.2110  0.2202 -0.4985
 1861WAT     H1 8150   3.061   7.256   2.785 -1.3077  0.2913  0.2824
 1861WAT     H2 8151   3.174   7.211   2.847 -0.0044  1.7589 -0.9522
 1861WAT    EPW 8152   3.097   7.207   2.834  0.3842 -0.5013 -0.2221
 1862WAT      O 8153   3.102   0.077   0.010 -0.4643  0.0647  0.1776
 1862WAT     H1 8154   3.023   0.113   0.015 -1.5835 -2.0237 -0.8919
 1862WAT     H2 8155   3.138   0.094   0.087 -2.4608  0.0261  1.1736
 1862WAT    EPW 8156   3.096   0.085   0.022 -0.0472  0.1645  0.4875
 1863WAT      O 8157   5.201   5.211   1.233 -0.0403  0.3803  0.4867
 1863WAT     H1 8158   5.209   5.223   1.319 -0.7816  1.5798  0.4151
 1863WAT     H2 8159   5.131   5.159   1.226 -0.3441  0.7677  0.5954
 1863WAT    EPW 8160   5.192   5.205   1.245  0.5059 -0.4489  0.5292
 1864WAT      O 8161   0.444   6.006   3.660 -0.2143 -0.0689  0.0139
 1864WAT     H1 8162   0.503   5.957   3.702  2.1151  2.7967  0.4483
 1864WAT     H2 8163   0.460   5.989   3.576  1.5765  0.8445  0.1061
 1864WAT    EPW 8164   0.455   5.996   3.654  0.2829 -0.8666  0.4227
 1865WAT      O 8165   2.182   1.497   4.816 -0.0867  0.3551  0.2596
 1865WAT     H1 8166   2.153   1.518   4.736 -1.2774  3.9004  1.4295
 1865WAT     H2 8167   2.264   1.528   4.817 -0.2993  0.9040  0.6234
 1865WAT    EPW 8168   2.190   1.505   4.804  0.0506 -0.4343 -0.4129
 1866WAT      O 8169   1.218   2.514   5.555 -0.5144 -0.0486 -0.4374
 1866WAT     H1 8170   1.132   2.525   5.547 -0.6316  0.5916  1.2925
 1866WAT     H2 8171   1.250   2.593   5.536 -0.6743  0.9485  2.7556
 1866WAT    EPW 8172   1.210   2.527   5.551  0.4246  0.0589 -0.3605
 1867WAT      O 8173   5.004   6.343   5.850 -0.0946  0.5529  0.0989
 1867WAT     H1 8174   5.044   6.288   5.905 -1.8075 -0.4089  0.4526
 1867WAT     H2 8175   5.012   6.420   5.890 -0.9560 -0.0640  1.5425
 1867WAT    EPW 8176   5.011   6.346   5.864 -0.3346 -0.1659  0.0024
 1868WAT      O 8177   1.650   2.185   5.506 -0.3004 -0.3713 -0.1585
 1868WAT     H1 8178   1.715   2.239   5.484  1.0433 -1.2755  1.3937
 1868WAT     H2 8179   1.581   2.238   5.512  0.6770  0.9481 -0.0456
 1868WAT    EPW 8180   1.649   2.201   5.504  0.3245 -0.3691 -0.1447
 1869WAT      O 8181   6.253   7.041   2.722  0.0054  0.0282  0.0987
 1869WAT     H1 8182   6.226   7.106   2.671  1.0171  0.1068 -0.3698
 1869WAT     H2 8183   6.205   6.973   2.695 -0.9712  0.5387  0.5131
 1869WAT    EPW 8184   6.242   7.040   2.710 -0.6556  0.0798  0.3517
 1870WAT      O 8185   6.931   0.133   5.389  0.0670  0.1704  0.2027
 1870WAT     H1 8186   7.009   0.098   5.409  0.3525 -0.6835 -2.1450
 1870WAT     H2 8187   6.951   0.212   5.359  0.1173 -0.2272 -0.8561
 1870WAT    EPW 8188   6.946   0.140   5.388 -0.2681 -0.4757  0.0429
 1871WAT      O 8189   6.425   0.853   2.932 -0.1635  0.1982 -0.4625
 1871WAT     H1 8190   6.373   0.858   2.862 -0.0033 -3.3960 -1.0594
 1871WAT     H2 8191   6.373   0.822   2.994  0.4825 -0.1741 -0.0936
 1871WAT    EPW 8192   6.410   0.849   2.931  0.0783 -0.0830 -0.1038
 1872WAT      O 8193   1.514   4.904   5.414 -0.1141  0.3268  0.2986
 1872WAT     H1 8194   1.522   4.986   5.387  1.4516  0.6044  1.4940
 1872WAT     H2 8195   1.517   4.911   5.501 -2.0245 -0.8217  0.5200
 1872WAT    EPW 8196   1.515   4.917   5.423  0.1475  0.1290  0.7513
 1873WAT      O 8197   2.781   1.211   0.954  0.9381 -0.3977  0.1115
 1873WAT     H1 8198   2.840   1.274   0.946  0.5733 -0.0531  0.1269
 1873WAT     H2 8199   2.764   1.188   0.871  2.3324 -1.6790  0.1238
 1873WAT    EPW 8200   2.787   1.217   0.940 -0.4334  0.4191  0.0339
 1874WAT      O 8201   5.265   3.673   4.106 -0.2431 -0.1279  0.0341
 1874WAT     H1 8202   5.242   3.688   4.188 -4.2744 -0.7081 -0.7832
 1874WAT     H2 8203   5.296   3.591   4.107 -1.1980 -0.4905  0.8547
 1874WAT    EPW 8204   5.267   3.663   4.118 -0.0620  0.4757  0.3570
 1875WAT      O 8205   4.850   6.299   6.232 -0.0428 -0.0704 -0.6629
 1875WAT     H1 8206   4.836   6.224   6.273  0.5465 -0.3342 -0.9221
 1875WAT     H2 8207   4.903   6.277   6.166 -2.3146  0.0237 -2.6584
 1875WAT    EPW 8208   4.856   6.285   6.228 -0.0412 -0.1371 -0.3187
 1876WAT      O 8209   0.139   0.263   6.356  0.3341  0.1679 -0.3765
 1876WAT     H1 8210   0.193   0.332   6.352  1.7784 -0.9046 -0.1155
 1876WAT     H2 8211   0.187   0.201   6.395 -1.2578 -0.6982  0.3040
 1876WAT    EPW 8212   0.154   0.264   6.361  0.2364  0.0401  0.3472
 1877WAT      O 8213   0.110   5.886   4.216 -0.3188 -0.0785  0.0674
 1877WAT     H1 8214   0.120   5.901   4.131  2.3458 -1.2736  0.0538
 1877WAT     H2 8215   0.130   5.962   4.253 -1.4842  0.4469 -0.3450
 1877WAT    EPW 8216   0.115   5.899   4.209  0.0433  0.5481  0.4525
 1878WAT      O 8217   0.826   3.774   7.422  0.6680 -0.4755 -0.5069
 1878WAT     H1 8218   0.785   3.700   7.443 -0.3095  0.0818 -0.3633
 1878WAT     H2 8219   0.800   3.788   7.340  0.1010  0.1715 -0.2277
 1878WAT    EPW 8220   0.816   3.765   7.413  0.2411 -0.6061  0.0659
 1879WAT      O 8221   3.029   1.370   5.856  0.2947 -0.1323 -0.0245
 1879WAT     H1 8222   3.059   1.324   5.788 -0.7523  0.1528 -0.7205
 1879WAT     H2 8223   3.009   1.448   5.820 -2.5394 -0.7384  0.0131
 1879WAT    EPW 8224   3.030   1.375   5.840 -0.3088 -0.2820 -0.1874
 1880WAT      O 8225   5.199   6.060   2.853  0.3033  0.0136 -0.1054
 1880WAT     H1 8226   5.235   6.140   2.846  1.2302 -0.4142 -0.4659
 1880WAT     H2 8227   5.183   6.053   2.938 -1.2379  1.1764 -0.2593
 1880WAT    EPW 8228   5.202   6.071   2.864 -0.6460  0.1273  0.3803
 1881WAT      O 8229   2.775   1.343   4.020 -0.1128 -0.3178  0.2929
 1881WAT     H1 8230   2.801   1.269   4.058 -0.3577 -0.1904  0.7090
 1881WAT     H2 8231   2.827   1.348   3.949 -0.2830 -1.0236  0.1069
 1881WAT    EPW 8232   2.787   1.333   4.015  0.1944  0.6202 -0.7990
 1882WAT      O 8233   4.201   5.885   6.872  0.0639  0.2157 -0.0343
 1882WAT     H1 8234   4.254   5.837   6.821  0.0613 -0.1088  0.2681
 1882WAT     H2 8235   4.163   5.826   6.924  0.9646  0.6613  1.1714
 1882WAT    EPW 8236   4.203   5.869   6.872 -0.1765 -0.2378 -0.3108
 1883WAT      O 8237   7.211   7.131   0.533  0.4198  0.5115  0.8922
 1883WAT     H1 8238   7.184   7.085   0.463 -0.7518  1.3151  0.7961
 1883WAT     H2 8239   7.172   7.091   0.599 -1.0327  1.6553  0.7573
 1883WAT    EPW 8240   7.202   7.118   0.532  0.2827 -0.7354  0.5508
 1884WAT      O 8241   6.478   5.363   3.498  0.8677  0.0907  0.0907
 1884WAT     H1 8242   6.477   5.443   3.532  1.1379 -0.5543  1.7212
 1884WAT     H2 8243   6.460   5.312   3.567 -2.1494 -1.1027 -1.4129
 1884WAT    EPW 8244   6.475   5.367   3.513  1.0552  0.5312 -0.3613
 1885WAT      O 8245   1.683   6.344   5.679 -0.0449 -0.1414  0.3564
 1885WAT     H1 8246   1.627   6.348   5.612  1.8953 -0.2926 -1.3915
 1885WAT     H2 8247   1.664   6.269   5.718  0.2259 -1.1872 -1.4412
 1885WAT    EPW 8248   1.672   6.334   5.675  0.1923  0.0209 -0.9594
 1886WAT      O 8249   5.227   5.306   1.488  0.2207  0.1522  0.3127
 1886WAT     H1 8250   5.301   5.297   1.533  1.3644 -3.7284 -1.8899
 1886WAT     H2 8251   5.166   5.282   1.544  0.9258  0.7171  1.3537
 1886WAT    EPW 8252   5.229   5.301   1.503 -0.5007  0.1105 -0.0614
 1887WAT      O 8253   5.022   6.856   1.486  0.4270 -0.3919  1.1651
 1887WAT     H1 8254   4.984   6.801   1.430  0.6197  0.2707  0.3729
 1887WAT     H2 8255   4.957   6.876   1.541  0.1668 -0.8504  1.0327
 1887WAT    EPW 8256   5.007   6.851   1.486  0.7862 -0.1666 -0.6039
 1888WAT      O 8257   5.633   1.149   3.264 -0.0020  0.2484  0.2090
 1888WAT     H1 8258   5.649   1.108   3.189 -0.9428 -0.3341  0.3171
 1888WAT     H2 8259   5.581   1.094   3.308  0.5512  0.5676  1.3028
 1888WAT    EPW 8260   5.628   1.135   3.260 -0.0675  0.1335 -0.8979
 1889WAT      O 8261   5.560   4.953   6.112  0.3756 -0.8036 -0.0656
 1889WAT     H1 8262   5.497   4.999   6.150 -0.2388 -2.4602  1.0296
 1889WAT     H2 8263   5.543   4.962   6.027  0.9203  1.7737  0.0133
 1889WAT    EPW 8264   5.548   4.961   6.105  0.2822  0.3430 -0.0658
 1890WAT      O 8265   7.220   6.846   7.229  0.1127  0.2589 -0.6911
 1890WAT     H1 8266   7.173   6.850   7.155 -0.4022 -0.1354 -0.3937
 1890WAT     H2 8267   7.279   6.909   7.220 -1.0599  1.3916 -0.6616
 1890WAT    EPW 8268   7.222   6.856   7.217  0.1501  0.0389 -0.4602
 1891WAT      O 8269   0.140   1.253   3.998  0.4016 -0.4073 -0.8933
 1891WAT     H1 8270   0.128   1.167   4.006  1.1227 -0.4609 -0.3450
 1891WAT     H2 8271   0.098   1.286   4.067 -1.4157 -0.1505 -2.0251
 1891WAT    EPW 8272   0.132   1.245   4.009  0.2522 -0.5796  0.0753
 1892WAT      O 8273   4.956   2.685   0.832 -0.0797 -0.0688  0.1912
 1892WAT     H1 8274   5.026   2.656   0.788  0.4621  1.0422  0.2811
 1892WAT     H2 8275   4.931   2.755   0.785 -1.0109 -0.3351  0.2764
 1892WAT    EPW 8276   4.962   2.691   0.818  0.4236  0.3883 -0.3417
 1893WAT      O 8277   1.457   7.118   4.219 -0.6326 -0.0675  0.5685
 1893WAT     H1 8278   1.380   7.081   4.202 -0.1386 -1.7159  1.6705
 1893WAT     H2 8279   1.514   7.054   4.208  0.8319  1.4828 -1.6942
 1893WAT    EPW 8280   1.454   7.103   4.215 -0.8168  0.2837 -0.7352
 1894WAT      O 8281   0.510   3.669   1.185 -0.1438 -0.5695 -0.2091
 1894WAT     H1 8282   0.450   3.647   1.124  0.3586 -0.5046 -0.7310
 1894WAT     H2 8283   0.577   3.699   1.138  1.0428 -2.3414  0.2350
 1894WAT    EPW 8284   0.511   3.670   1.169 -0.6585 -0.9225 -0.1913
 1895WAT      O 8285   1.125   1.739   4.160 -0.0985 -0.2180 -0.6504
 1895WAT     H1 8286   1.038   1.736   4.161 -0.2153  0.9556 -2.4563
 1895WAT     H2 8287   1.143   1.799   4.099  1.9822  0.3486  0.4222
 1895WAT    EPW 8288   1.115   1.747   4.151 -0.1156  0.0156 -0.0759
 1896WAT      O 8289   4.891   5.374   6.049  0.1996 -0.0456 -0.0890
 1896WAT     H1 8290   4.829   5.405   6.103  1.0026  1.9762 -0.2700
 1896WAT     H2 8291   4.851   5.372   5.971  0.6446  2.4291 -0.4464
 1896WAT    EPW 8292   4.876   5.378   6.046 -0.3210 -0.1474  0.6660
 1897WAT      O 8293   2.285   3.173   6.733  0.0410 -0.7800 -0.2233
 1897WAT     H1 8294   2.316   3.218   6.665 -2.9180 -0.0407 -1.2258
 1897WAT     H2 8295   2.281   3.091   6.702  0.1851 -0.7288 -0.3810
 1897WAT    EPW 8296   2.289   3.167   6.718  0.1895  0.0921  0.3283
 1898WAT      O 8297   4.053   3.747   0.014  0.0276  0.2946 -0.2542
 1898WAT     H1 8298   4.016   3.698   0.076  0.3665 -1.5503 -1.4421
 1898WAT     H2 8299   4.023   3.713  -0.060  0.5487  1.7007 -1.1643
 1898WAT    EPW 8300   4.043   3.735   0.013  0.1445  0.0830  0.4172
 1899WAT      O 8301   3.768   0.291   3.728 -0.2080 -0.1248  0.2045
 1899WAT     H1 8302   3.716   0.343   3.775  1.2309  1.8321 -0.2443
 1899WAT     H2 8303   3.747   0.311   3.645  0.4651 -0.1433  0.0240
 1899WAT    EPW 8304   3.757   0.301   3.723  0.2321  0.0543  0.1978
 1900WAT      O 8305   6.738   1.736   5.637  0.2936  0.3129 -0.4865
 1900WAT     H1 8306   6.662   1.756   5.600  0.1880 -0.1518 -0.5282
 1900WAT     H2 8307   6.716   1.679   5.699  0.6978 -0.4950 -1.0649
 1900WAT    EPW 8308   6.724   1.731   5.641  0.2501 -0.1599  0.2706
 1901WAT      O 8309   2.129   4.640   2.969  0.5507 -0.2349  0.1122
 1901WAT     H1 8310   2.127   4.565   2.924  1.1833 -0.3830  0.3201
 1901WAT     H2 8311   2.046   4.653   2.991  0.4066 -0.7685 -0.1005
 1901WAT    EPW 8312   2.116   4.631   2.966 -0.1012 -0.5423 -0.1758
 1902WAT      O 8313   7.034   5.268   5.316 -0.0022 -0.2065  0.4101
 1902WAT     H1 8314   7.079   5.342   5.309 -2.9697  2.0449  2.5544
 1902WAT     H2 8315   7.081   5.221   5.372  0.2084  1.7298  1.9906
 1902WAT    EPW 8316   7.047   5.272   5.323 -0.3232 -0.1093 -1.0305
 1903WAT      O 8317   1.894   2.815   5.701  0.3258 -0.0271  0.2715
 1903WAT     H1 8318   1.881   2.729   5.702  1.9482 -0.2990  1.5835
 1903WAT     H2 8319   1.910   2.832   5.617  3.6068 -1.6855  0.4210
 1903WAT    EPW 8320   1.895   2.805   5.689 -0.3465 -0.1816  0.7202
 1904WAT      O 8321   1.282   0.853   4.149  0.3321  0.0160 -0.1034
 1904WAT     H1 8322   1.255   0.901   4.081 -1.3899  1.0019  1.1982
 1904WAT     H2 8323   1.282   0.772   4.119  3.2283  0.6586 -2.3696
 1904WAT    EPW 8324   1.278   0.848   4.134  0.3376 -0.3712 -0.0023
 1905WAT      O 8325   5.197   3.231   4.189  0.0377 -0.2072  0.0238
 1905WAT     H1 8326   5.153   3.221   4.263 -0.9095 -0.0527 -0.5008
 1905WAT     H2 8327   5.214   3.150   4.163  0.8886 -0.2605  0.6862
 1905WAT    EPW 8328   5.193   3.218   4.196 -0.1726  0.7259  0.7584
 1906WAT      O 8329   0.962   5.021   5.781  0.0594 -0.7017  1.1415
 1906WAT     H1 8330   0.935   5.081   5.839 -1.0050 -0.2458  0.2069
 1906WAT     H2 8331   0.910   4.953   5.797 -1.3797  0.0002 -0.3270
 1906WAT    EPW 8332   0.950   5.020   5.792 -0.2502 -0.3191 -0.2059
 1907WAT      O 8333   5.501   5.776   6.652  0.3567  0.5005 -0.2696
 1907WAT     H1 8334   5.574   5.772   6.700  2.0253  1.4523 -2.5738
 1907WAT     H2 8335   5.469   5.695   6.658  0.5478  0.5201  2.2338
 1907WAT    EPW 8336   5.507   5.763   6.660  0.0502  0.2607 -0.1681
 1908WAT      O 8337   2.273   1.657   6.470  0.6121  0.5643 -0.1657
 1908WAT     H1 8338   2.188   1.678   6.465  0.4290 -0.1132 -0.0789
 1908WAT     H2 8339   2.310   1.704   6.407  0.3906  1.8835  0.6556
 1908WAT    EPW 8340   2.266   1.667   6.460  0.0844  0.3804  0.1277
 1909WAT      O 8341   6.148   0.299   3.824 -0.0040  0.6091  0.1593
 1909WAT     H1 8342   6.064   0.287   3.845 -0.5351  0.1732 -1.9803
 1909WAT     H2 8343   6.165   0.380   3.853 -1.3860  0.9844  0.0046
 1909WAT    EPW 8344   6.138   0.309   3.831  0.5267 -0.2818 -0.4894
 1910WAT      O 8345   1.296   3.712   6.492  0.0981  0.5332  0.1566
 1910WAT     H1 8346   1.362   3.731   6.438 -0.1062  0.5501 -0.0853
 1910WAT     H2 8347   1.225   3.725   6.444 -0.0672 -0.4222  0.1106
 1910WAT    EPW 8348   1.296   3.716   6.477  0.5776  0.0548  0.5618
 1911WAT      O 8349   5.882   0.871   6.430  0.4059  0.3669 -0.0814
 1911WAT     H1 8350   5.877   0.878   6.343 -0.3066 -0.2313 -0.0989
 1911WAT     H2 8351   5.941   0.809   6.443 -0.9189 -0.9594 -0.2050
 1911WAT    EPW 8352   5.890   0.863   6.419  0.0883  0.5989 -0.2507
 1912WAT      O 8353   4.835   0.053   4.885  0.0886 -0.1223 -0.1291
 1912WAT     H1 8354   4.758   0.027   4.854 -0.4413  1.2706 -0.0637
 1912WAT     H2 8355   4.859   0.115   4.828  0.7436  0.0558  0.3355
 1912WAT    EPW 8356   4.827   0.059   4.872  0.3934  0.0077  0.1162
 1913WAT      O 8357   4.043   6.224   1.944 -0.0212 -0.0953  0.1152
 1913WAT     H1 8358   3.981   6.163   1.950  0.5423 -0.5717  1.1950
 1913WAT     H2 8359   4.095   6.194   1.880  1.1184 -1.5802  1.6612
 1913WAT    EPW 8360   4.042   6.210   1.935 -0.5773  0.0160  0.2980
 1914WAT      O 8361   6.840   6.189   5.395  0.3903  0.1193 -0.7863
 1914WAT     H1 8362   6.756   6.167   5.393 -0.1396  1.4064  2.4680
 1914WAT     H2 8363   6.880   6.118   5.425  0.0724  0.3780  0.2564
 1914WAT    EPW 8364   6.833   6.175   5.399 -0.4950  0.3747 -0.1030
 1915WAT      O 8365   3.462   6.739   5.890 -0.0539  0.4018  0.7119
 1915WAT     H1 8366   3.544   6.712   5.902 -0.0826  0.3573  0.8107
 1915WAT     H2 8367   3.414   6.669   5.909 -0.2020  0.9332  2.4247
 1915WAT    EPW 8368   3.467   6.725   5.894 -0.2819 -0.2131  0.1147
 1916WAT      O 8369   5.599   5.989   0.370 -0.1984  0.1471 -0.9490
 1916WAT     H1 8370   5.604   6.031   0.293  2.5247 -1.8271 -2.0339
 1916WAT     H2 8371   5.664   6.024   0.416 -1.0343  0.4437  0.0331
 1916WAT    EPW 8372   5.609   6.000   0.365  0.1913 -0.8200 -0.1138
 1917WAT      O 8373   2.847   4.365   7.178 -0.2891  0.4200 -0.1983
 1917WAT     H1 8374   2.808   4.303   7.130 -0.5061  0.3044  0.1279
 1917WAT     H2 8375   2.838   4.437   7.129 -2.0356  0.6709  0.4208
 1917WAT    EPW 8376   2.840   4.366   7.163  0.1502  0.0617  0.1415
 1918WAT      O 8377   0.447   6.382   7.294 -0.6391 -0.0023 -0.1714
 1918WAT     H1 8378   0.393   6.419   7.352 -1.2923 -0.2669 -0.5882
 1918WAT     H2 8379   0.448   6.298   7.319  0.0035  0.0991  0.1495
 1918WAT    EPW 8380   0.439   6.375   7.306  0.0503  0.4496 -0.1498
 1919WAT      O 8381   0.325   1.664   3.137  0.6466 -0.5772  0.0643
 1919WAT     H1 8382   0.246   1.651   3.171  0.6279 -0.8990 -0.0960
 1919WAT     H2 8383   0.322   1.620   3.062  0.4306  0.7134 -0.7206
 1919WAT    EPW 8384   0.313   1.656   3.131  0.1778 -0.0224  0.1162
 1920WAT      O 8385   6.051   5.443   2.324 -0.2958 -0.3842  0.4310
 1920WAT     H1 8386   6.114   5.389   2.298  0.8655  0.8180  0.6775
 1920WAT     H2 8387   6.080   5.474   2.400 -2.1468 -1.3684  1.6123
 1920WAT    EPW 8388   6.064   5.440   2.332 -0.1474 -0.3001  0.2976
 1921WAT      O 8389   3.218   3.787   1.605 -0.3196  0.2265  1.0536
 1921WAT     H1 8390   3.259   3.716   1.635 -0.2144 -0.8305 -1.3730
 1921WAT     H2 8391   3.135   3.776   1.632 -0.4443 -1.1844  0.1777
 1921WAT    EPW 8392   3.212   3.775   1.613  0.9143  0.4476 -0.2930
 1922WAT      O 8393   3.969   4.961   6.338 -0.7328  0.2624  0.0282
 1922WAT     H1 8394   3.901   5.006   6.305 -2.5457 -0.9441  1.8653
 1922WAT     H2 8395   4.009   5.019   6.389 -1.1136  0.6624 -0.1202
 1922WAT    EPW 8396   3.965   4.976   6.341 -0.3754  0.0213 -0.3636
 1923WAT      O 8397   4.819   1.922   5.495  0.4758 -0.7779 -0.1521
 1923WAT     H1 8398   4.743   1.884   5.513 -0.4392 -0.2610 -2.4937
 1923WAT     H2 8399   4.836   1.897   5.413  1.5002  1.1659 -0.6136
 1923WAT    EPW 8400   4.811   1.913   5.485 -0.9139  0.8807 -0.1587
 1924WAT      O 8401   0.886   3.127   4.937  0.1244 -0.1971  0.3967
 1924WAT     H1 8402   0.895   3.068   4.874  0.0574 -0.2685  0.4535
 1924WAT     H2 8403   0.917   3.086   5.008  1.8004  0.4620  0.1008
 1924WAT    EPW 8404   0.892   3.113   4.938 -0.0386  0.1601  0.1338
 1925WAT      O 8405   5.383   0.561   2.553  0.0148 -0.1465 -0.3550
 1925WAT     H1 8406   5.407   0.644   2.543  0.1320 -0.1328  0.0179
 1925WAT     H2 8407   5.319   0.564   2.611  2.5825 -0.6269  2.7780
 1925WAT    EPW 8408   5.377   0.574   2.560  0.5845  0.2714  0.0284
 1926WAT      O 8409   3.035   6.698   2.539 -0.2098 -0.4953  0.0728
 1926WAT     H1 8410   3.063   6.617   2.554 -1.4726 -1.1204 -0.7380
 1926WAT     H2 8411   2.962   6.703   2.587 -0.1931  0.1064  0.0352
 1926WAT    EPW 8412   3.028   6.686   2.548  0.1695 -0.1946 -0.3533
 1927WAT      O 8413   1.604   0.197   6.282  0.0364 -0.0066 -0.2780
 1927WAT     H1 8414   1.648   0.202   6.207 -1.5245 -1.0083 -1.3417
 1927WAT     H2 8415   1.635   0.125   6.320 -0.0258 -0.1932 -0.5776
 1927WAT    EPW 8416   1.615   0.187   6.276  0.4379  0.2700 -0.0836
 1928WAT      O 8417   4.108   7.106   7.003 -0.2206 -0.3417  0.4316
 1928WAT     H1 8418   4.081   7.188   7.016  2.6190  0.3118  3.3969
 1928WAT     H2 8419   4.181   7.115   6.956 -0.8860 -1.4439 -0.9135
 1928WAT    EPW 8420   4.115   7.120   6.998 -0.0029  0.2667 -0.1367
 1929WAT      O 8421   4.215   4.915   7.492 -0.3812  0.7744  0.4443
 1929WAT     H1 8422   4.235   4.998   7.476  1.8032  0.2266 -0.0366
 1929WAT     H2 8423   4.275   4.871   7.447 -0.6004 -1.0403  1.8240
 1929WAT    EPW 8424   4.227   4.921   7.483 -0.1961  0.0323 -0.0760
 1930WAT      O 8425   5.158   1.298   0.802  0.6461 -0.1938  0.1775
 1930WAT     H1 8426   5.217   1.289   0.866  0.9285  0.1784 -0.0270
 1930WAT     H2 8427   5.147   1.384   0.797  0.0351 -0.2654  0.2551
 1930WAT    EPW 8428   5.165   1.309   0.811  0.2313  0.3745  0.0936
 1931WAT      O 8429   1.739   2.909   0.898 -0.3569  0.1190  0.5823
 1931WAT     H1 8430   1.758   2.839   0.849  0.7182  0.0587  1.0540
 1931WAT     H2 8431   1.678   2.879   0.953  1.1921 -0.9450  1.8194
 1931WAT    EPW 8432   1.733   2.894   0.899  0.2749 -0.8474 -0.5611
 1932WAT      O 8433   3.637   0.378   1.827 -0.0709 -0.4173  0.4615
 1932WAT     H1 8434   3.590   0.450   1.811 -0.8133 -1.0650 -0.4558
 1932WAT     H2 8435   3.592   0.337   1.890 -0.9778 -1.1845 -0.6214
 1932WAT    EPW 8436   3.624   0.382   1.834 -0.7264  0.4066 -0.2627
 1933WAT      O 8437   6.706   4.126   7.149 -0.3106 -0.1524 -0.3055
 1933WAT     H1 8438   6.770   4.067   7.155  2.5554  2.6251 -1.1950
 1933WAT     H2 8439   6.695   4.154   7.231 -0.2947 -0.4921 -0.1842
 1933WAT    EPW 8440   6.714   4.121   7.162 -0.1385 -0.2063 -0.3569
 1934WAT      O 8441   7.334   2.365   3.886  0.0813  0.3106  0.0544
 1934WAT     H1 8442   7.302   2.316   3.821 -0.9704  0.6768  0.2653
 1934WAT     H2 8443   7.318   2.447   3.860 -0.1846  0.4641  0.6834
 1934WAT    EPW 8444   7.327   2.370   3.873 -0.2492  0.0691  0.2029
 1935WAT      O 8445   5.950   2.825   1.947  0.3750 -0.0498  0.2183
 1935WAT     H1 8446   5.908   2.758   1.984  1.4111 -0.4497  0.6891
 1935WAT     H2 8447   5.895   2.850   1.884 -0.7851 -0.2535  1.1047
 1935WAT    EPW 8448   5.936   2.819   1.943  0.2395  0.4611 -0.5805
 1936WAT      O 8449   3.422   5.648   2.217  0.1682  0.1508  0.0266
 1936WAT     H1 8450   3.379   5.639   2.142  0.4991  1.4652 -0.3598
 1936WAT     H2 8451   3.362   5.634   2.278 -0.2790 -0.2042 -0.4925
 1936WAT    EPW 8452   3.407   5.645   2.215 -0.4326 -0.1296 -0.0702
 1937WAT      O 8453   1.426   6.862   6.508 -0.2979  0.3719  0.2234
 1937WAT     H1 8454   1.460   6.787   6.482 -1.0978  0.5178 -1.3565
 1937WAT     H2 8455   1.424   6.855   6.595  1.9021 -0.3965  0.2561
 1937WAT    EPW 8456   1.431   6.850   6.517  0.0501 -0.2583  0.3194
 1938WAT      O 8457   4.331   3.450   1.325  0.2199 -0.4150 -0.2304
 1938WAT     H1 8458   4.403   3.478   1.365 -0.1180  1.3983 -0.8045
 1938WAT     H2 8459   4.361   3.421   1.248  0.1799  2.5223 -1.4732
 1938WAT    EPW 8460   4.346   3.450   1.320  0.0369 -0.9237  0.2384
 1939WAT      O 8461   5.348   1.254   3.541 -0.5472 -0.1245  0.0940
 1939WAT     H1 8462   5.333   1.297   3.467  1.2285 -1.0871 -0.8652
 1939WAT     H2 8463   5.274   1.267   3.587 -2.2083 -0.5218 -2.2945
 1939WAT    EPW 8464   5.335   1.263   3.537  0.2705 -0.1394  0.5327
 1940WAT      O 8465   3.115   5.295   1.423 -0.3572 -0.1662 -0.0919
 1940WAT     H1 8466   3.105   5.337   1.347  1.5975 -0.5301 -0.6129
 1940WAT     H2 8467   3.034   5.284   1.451 -1.1544 -0.0716 -2.1683
 1940WAT    EPW 8468   3.102   5.299   1.416  0.0940  0.2190  0.2231
 1941WAT      O 8469   3.237   4.579   1.727 -0.2940 -0.5749 -0.2820
 1941WAT     H1 8470   3.308   4.602   1.683  0.2199 -1.7373 -0.0927
 1941WAT     H2 8471   3.265   4.517   1.781 -1.2046 -0.1710  0.6914
 1941WAT    EPW 8472   3.251   4.573   1.728  0.3644 -0.1362 -0.0709
 1942WAT      O 8473   5.631   3.300   0.938  0.0155 -0.4096 -0.5525
 1942WAT     H1 8474   5.576   3.343   0.991  1.1555  0.1621  0.2116
 1942WAT     H2 8475   5.685   3.362   0.909  1.1158 -1.1548 -0.1796
 1942WAT    EPW 8476   5.631   3.316   0.942 -0.4391 -0.0640 -0.0086
 1943WAT      O 8477   6.560   4.384   7.529 -0.1819 -0.3742  0.2970
 1943WAT     H1 8478   6.490   4.429   7.553 -0.2099 -1.4800  2.4747
 1943WAT     H2 8479   6.624   4.444   7.529 -0.7070  0.1961  0.4756
 1943WAT    EPW 8480   6.559   4.400   7.532  0.2439 -0.4858 -0.3665
 1944WAT      O 8481   2.087   5.392   4.360 -0.0740 -0.4922  0.8409
 1944WAT     H1 8482   2.084   5.357   4.440  0.2086 -0.1128  1.0216
 1944WAT     H2 8483   2.009   5.431   4.352 -0.6804 -1.7580  0.3527
 1944WAT    EPW 8484   2.075   5.392   4.371  0.1644 -0.8980  0.5156
 1945WAT      O 8485   4.669   0.449   4.944  0.0316  0.2606 -0.2363
 1945WAT     H1 8486   4.735   0.466   4.997 -0.4653  2.5765 -0.2322
 1945WAT     H2 8487   4.706   0.412   4.875  0.9549 -0.8631  0.8391
 1945WAT    EPW 8488   4.684   0.446   4.941  0.1209  0.1423  0.1020
 1946WAT      O 8489   2.063   2.814   3.094 -0.3910  0.1811  0.3065
 1946WAT     H1 8490   2.035   2.750   3.147  0.4937 -1.0447 -0.6492
 1946WAT     H2 8491   2.109   2.865   3.148 -0.8211 -0.1641  1.0281
 1946WAT    EPW 8492   2.066   2.812   3.110  0.6704 -0.3260  0.1628
 1947WAT      O 8493   7.586   6.439   2.853 -0.3019 -0.1101  0.0549
 1947WAT     H1 8494   7.648   6.480   2.898 -1.9065  2.2884  0.3217
 1947WAT     H2 8495   7.538   6.399   2.915  0.4072 -1.1629 -0.0610
 1947WAT    EPW 8496   7.588   6.439   2.869 -0.0420 -0.3465 -0.6581
 1948WAT      O 8497   6.908   1.185   0.898 -0.6567 -0.1673 -0.5119
 1948WAT     H1 8498   6.835   1.196   0.946  1.4030  1.6708  2.5507
 1948WAT     H2 8499   6.913   1.259   0.852  0.8986  1.4873  2.0096
 1948WAT    EPW 8500   6.898   1.198   0.899 -0.2756 -0.4876  0.0207
 1949WAT      O 8501   1.014   4.954   6.781  0.3432  0.0881  0.1212
 1949WAT     H1 8502   1.081   4.933   6.832 -0.6376  0.2760  1.5725
 1949WAT     H2 8503   0.982   4.877   6.756  0.7443 -0.0079 -0.1051
 1949WAT    EPW 8504   1.019   4.940   6.785 -0.1713 -0.5236  0.1962
 1950WAT      O 8505   7.241   1.449   4.838 -0.0869  0.6048  0.2460
 1950WAT     H1 8506   7.293   1.452   4.908 -0.8858  1.5278  0.8067
 1950WAT     H2 8507   7.280   1.503   4.781  0.1380  0.4634  0.2650
 1950WAT    EPW 8508   7.255   1.457   4.840 -0.2934 -0.2256 -0.2327
 1951WAT      O 8509   6.346   0.358   0.202  0.3630  0.0593  0.2738
 1951WAT     H1 8510   6.295   0.414   0.158 -1.6128 -2.1509 -0.4850
 1951WAT     H2 8511   6.294   0.328   0.265  0.7274 -2.1496 -0.3948
 1951WAT    EPW 8512   6.331   0.362   0.204 -0.7401 -0.2804 -0.1466
 1952WAT      O 8513   0.596   6.531   1.046 -0.6131  0.1669  0.2738
 1952WAT     H1 8514   0.639   6.463   1.079 -0.2280  0.6719  0.8408
 1952WAT     H2 8515   0.584   6.510   0.962  0.8422  0.0546  0.0695
 1952WAT    EPW 8516   0.601   6.518   1.038 -0.0225  0.4573  0.2856
 1953WAT      O 8517   4.108   2.263   2.638  0.2764  0.5111 -0.6271
 1953WAT     H1 8518   4.184   2.306   2.634  0.1343  1.0040  1.0241
 1953WAT     H2 8519   4.058   2.316   2.685 -0.3170 -0.9113  0.4026
 1953WAT    EPW 8520   4.112   2.278   2.644  0.5387  0.5367  0.2817
 1954WAT      O 8521   1.707   1.408   3.828  0.1260 -0.4982 -0.0702
 1954WAT     H1 8522   1.740   1.477   3.870  0.0940 -0.3352 -0.3096
 1954WAT     H2 8523   1.701   1.347   3.890 -0.3113 -0.1274  0.2576
 1954WAT    EPW 8524   1.711   1.409   3.844  0.0510  0.8561 -0.2417
 1955WAT      O 8525   4.971   5.004   2.893 -0.1434 -0.5724  0.2220
 1955WAT     H1 8526   4.992   5.079   2.930  0.0818 -1.1009  1.1877
 1955WAT     H2 8527   5.029   4.996   2.828 -0.6573  0.4387 -0.3923
 1955WAT    EPW 8528   4.983   5.014   2.889 -0.9344 -0.9562  0.0489
 1956WAT      O 8529   3.605   4.384   1.352  0.6311  0.2301  0.2813
 1956WAT     H1 8530   3.627   4.462   1.319 -0.0673 -0.3283 -1.6487
 1956WAT     H2 8531   3.675   4.334   1.334  0.0061 -0.2264 -0.9504
 1956WAT    EPW 8532   3.619   4.388   1.344  0.2847 -0.4260  0.9175
 1957WAT      O 8533   0.839   2.633   7.572  0.9322  0.0570  0.3154
 1957WAT     H1 8534   0.831   2.624   7.658 -1.1786 -2.2147  0.0088
 1957WAT     H2 8535   0.919   2.601   7.555  1.5733  1.0196  1.4422
 1957WAT    EPW 8536   0.850   2.627   7.582 -0.7097  0.5032  0.3464
 1958WAT      O 8537   0.474   2.271   0.363 -0.5539 -0.6034 -0.1807
 1958WAT     H1 8538   0.444   2.220   0.427 -0.7010 -2.6197 -1.7537
 1958WAT     H2 8539   0.452   2.228   0.290  0.2613  1.2133 -1.5920
 1958WAT    EPW 8540   0.466   2.257   0.362  0.0348  0.1217  0.4499
 1959WAT      O 8541   0.567   1.238   3.434 -0.5295  0.0081  0.1213
 1959WAT     H1 8542   0.490   1.247   3.394 -0.5899 -0.5015  0.1107
 1959WAT     H2 8543   0.546   1.194   3.507 -0.0820 -1.2935 -0.4997
 1959WAT    EPW 8544   0.553   1.233   3.439  0.1336  0.0254 -0.3176
 1960WAT      O 8545   6.435   7.444   5.846  0.5475  0.3873  0.4757
 1960WAT     H1 8546   6.422   7.376   5.793 -1.4787  1.3224 -0.3690
 1960WAT     H2 8547   6.469   7.505   5.793 -0.1710  0.8834  0.5722
 1960WAT    EPW 8548   6.438   7.443   5.830  0.0709  0.5316 -0.1719
 1961WAT      O 8549   1.764   6.910   3.403 -0.3688 -0.3442  0.1470
 1961WAT     H1 8550   1.729   6.983   3.373  0.7405  0.1361 -0.0169
 1961WAT     H2 8551   1.737   6.907   3.486 -0.1693  0.4143  0.2465
 1961WAT    EPW 8552   1.755   6.920   3.411  0.2382 -0.2874  0.3600
 1962WAT      O 8553   4.563   1.667   3.525  0.2508  0.4118  0.3372
 1962WAT     H1 8554   4.502   1.706   3.477 -0.1629 -0.3875  0.1930
 1962WAT     H2 8555   4.541   1.686   3.607  0.7818  1.5208  0.2478
 1962WAT    EPW 8556   4.551   1.676   3.530  0.2825  0.2828  0.4794
 1963WAT      O 8557   3.641   7.566   6.543  0.1016  0.4553  0.2134
 1963WAT     H1 8558   3.600   7.620   6.488 -0.2037  0.3263  0.3119
 1963WAT     H2 8559   3.713   7.542   6.499 -0.1979  0.2615 -0.1806
 1963WAT    EPW 8560   3.646   7.570   6.528 -0.1537 -0.1440 -0.4022
 1964WAT      O 8561   7.432   6.124   2.662  0.0250 -0.3091 -0.3458
 1964WAT     H1 8562   7.367   6.076   2.629  0.3975 -0.6386 -0.6030
 1964WAT     H2 8563   7.428   6.198   2.616 -2.1152  0.9642  1.6671
 1964WAT    EPW 8564   7.422   6.128   2.650 -0.2103  0.0808  0.4811
 1965WAT      O 8565   5.081   6.950   2.356 -0.0708 -0.0162  0.3271
 1965WAT     H1 8566   5.054   6.923   2.435 -1.0594 -1.2458 -0.3877
 1965WAT     H2 8567   5.166   6.928   2.356  0.3339  1.3393  1.5556
 1965WAT    EPW 8568   5.090   6.942   2.368  0.1496 -0.1103 -0.5967
 1966WAT      O 8569   1.867   0.806   7.379  0.7918 -0.2477 -0.1525
 1966WAT     H1 8570   1.862   0.887   7.411  0.0061 -0.4732  0.2983
 1966WAT     H2 8571   1.919   0.816   7.309  2.0482  0.3428  0.8271
 1966WAT    EPW 8572   1.874   0.820   7.373 -0.0218  0.4655  0.0385
 1967WAT      O 8573   4.088   0.228   7.575  0.0814 -0.6860 -0.5871
 1967WAT     H1 8574   4.154   0.206   7.522  0.6559  0.6051 -0.4511
 1967WAT     H2 8575   4.094   0.315   7.580  0.9392 -0.8226  2.7499
 1967WAT    EPW 8576   4.098   0.238   7.568  0.3694 -0.3509  0.6274
 1968WAT      O 8577   2.218   4.925   0.691  0.1557  0.2442 -0.6405
 1968WAT     H1 8578   2.218   5.004   0.654 -1.3922 -0.6069 -2.6372
 1968WAT     H2 8579   2.293   4.923   0.737  0.4229  2.6775 -0.8808
 1968WAT    EPW 8580   2.229   4.936   0.692 -0.2814 -0.1158 -0.4355
 1969WAT      O 8581   1.629   7.599   4.850  0.1193  0.4107  0.6536
 1969WAT     H1 8582   1.685   7.606   4.783  0.4747 -0.6570  0.8245
 1969WAT     H2 8583   1.638   7.516   4.875 -1.2807  0.3243  0.9255
 1969WAT    EPW 8584   1.639   7.588   4.844 -0.1997  0.0896  0.1451
 1970WAT      O 8585   1.668   5.272   3.851 -0.4562  0.0391  0.0862
 1970WAT     H1 8586   1.600   5.288   3.903 -0.9295 -1.3389 -0.0486
 1970WAT     H2 8587   1.696   5.194   3.878  1.3524  0.7622  0.4049
 1970WAT    EPW 8588   1.662   5.263   3.863 -0.4193 -0.7684 -0.0681
 1971WAT      O 8589   5.837   0.826   4.738 -0.7098  0.2974 -0.1563
 1971WAT     H1 8590   5.774   0.873   4.777 -0.4307  1.1553 -0.7194
 1971WAT     H2 8591   5.832   0.749   4.778 -0.6530  1.0471  1.3726
 1971WAT    EPW 8592   5.827   0.822   4.750 -0.2415 -0.5227  0.2015
 1972WAT      O 8593   0.493   0.949   0.850  0.8808 -0.0361  0.0821
 1972WAT     H1 8594   0.561   0.998   0.828 -1.2771  2.6874 -1.1116
 1972WAT     H2 8595   0.487   0.891   0.785  2.0093 -0.3157  0.2131
 1972WAT    EPW 8596   0.502   0.948   0.838 -0.4633 -0.0459 -0.0414
 1973WAT      O 8597   3.231   3.802   5.744 -0.2282  0.1253  0.6874
 1973WAT     H1 8598   3.307   3.795   5.787 -0.1436  0.9295  0.6957
 1973WAT     H2 8599   3.252   3.781   5.662 -0.3935 -1.4301  1.0234
 1973WAT    EPW 8600   3.245   3.798   5.739 -0.5896 -0.6564 -0.0953
 1974WAT      O 8601   6.005   4.009   0.643  0.0718 -0.1071 -0.2817
 1974WAT     H1 8602   6.052   3.988   0.573  0.7611 -0.2592  0.2131
 1974WAT     H2 8603   6.061   3.999   0.709 -0.4039  0.5436  0.2421
 1974WAT    EPW 8604   6.021   4.005   0.642  0.3912  0.6756 -0.0961
 1975WAT      O 8605   3.109   0.385   0.043  0.0002 -0.0534 -0.4382
 1975WAT     H1 8606   3.098   0.354  -0.038  1.2074  1.2952 -1.1752
 1975WAT     H2 8607   3.148   0.462   0.030  1.5990 -0.4439  1.4582
 1975WAT    EPW 8608   3.113   0.392   0.029  0.0050 -0.5478  0.2157
 1976WAT      O 8609   1.687   4.571   4.918  0.0934  0.0619 -0.5538
 1976WAT     H1 8610   1.606   4.542   4.900 -0.1696  0.2839  0.2529
 1976WAT     H2 8611   1.738   4.517   4.872 -0.3076 -2.2947  1.5655
 1976WAT    EPW 8612   1.682   4.559   4.908 -0.1638  0.5490 -0.6122
 1977WAT      O 8613   5.711   1.401   3.330  0.2951  0.2082  0.2155
 1977WAT     H1 8614   5.687   1.322   3.303  1.9405 -0.1650 -0.2170
 1977WAT     H2 8615   5.687   1.402   3.414 -0.9456 -0.2163 -0.1052
 1977WAT    EPW 8616   5.704   1.389   3.339 -0.4790  0.1302 -0.4441
 1978WAT      O 8617   1.937   1.557   7.550 -0.1584  0.7634  0.4791
 1978WAT     H1 8618   1.940   1.568   7.464  0.1549 -1.1745  0.1977
 1978WAT     H2 8619   2.021   1.554   7.573 -0.2316  0.0372  0.6618
 1978WAT    EPW 8620   1.950   1.558   7.541 -0.4630 -0.2702  1.1403
 1979WAT      O 8621   4.861   2.840   2.417  0.1379 -0.5586  0.1691
 1979WAT     H1 8622   4.797   2.782   2.431  0.1544 -1.0633 -1.6559
 1979WAT     H2 8623   4.819   2.917   2.417 -0.3832 -0.8334 -0.3955
 1979WAT    EPW 8624   4.845   2.843   2.419 -0.2209  0.8865  0.2256
 1980WAT      O 8625   7.505   6.726   6.256 -0.3347  0.7116 -0.1653
 1980WAT     H1 8626   7.533   6.709   6.175  1.7196  0.5394  0.5103
 1980WAT     H2 8627   7.472   6.807   6.250 -1.3823  0.2254 -1.4045
 1980WAT    EPW 8628   7.505   6.735   6.243  0.1004 -0.3636  0.3317
 1981WAT      O 8629   7.566   2.454   5.633  0.3668  0.2076 -0.1898
 1981WAT     H1 8630   7.651   2.436   5.622  0.4107  1.3635 -2.4499
 1981WAT     H2 8631   7.528   2.411   5.567 -0.5927  1.0586 -0.2066
 1981WAT    EPW 8632   7.573   2.445   5.621  0.3405  0.2440  0.1032
 1982WAT      O 8633   6.532   7.222   0.875  0.3522 -0.1779  0.2923
 1982WAT     H1 8634   6.459   7.270   0.871 -0.7971 -1.9237 -1.4508
 1982WAT     H2 8635   6.522   7.177   0.950  1.0556  1.5994  1.5176
 1982WAT    EPW 8636   6.520   7.222   0.886  0.1617 -0.5099  0.2714
 1983WAT      O 8637   1.012   5.144   1.029  0.3452 -0.2886  0.0659
 1983WAT     H1 8638   1.077   5.202   1.037  0.7282 -0.8295  1.0106
 1983WAT     H2 8639   1.033   5.100   0.956  0.7442 -0.0944  0.0618
 1983WAT    EPW 8640   1.025   5.146   1.020  0.0463  0.6019 -0.0001
 1984WAT      O 8641   7.259   0.280   6.793  0.1515 -0.7498 -0.1274
 1984WAT     H1 8642   7.302   0.345   6.754  1.9582 -1.4577  0.5806
 1984WAT     H2 8643   7.190   0.319   6.830  0.1383  0.4202 -1.3318
 1984WAT    EPW 8644   7.255   0.295   6.793  0.4146  0.4229 -0.0201
 1985WAT      O 8645   7.647   2.190   0.564 -0.5064  0.1491 -0.2137
 1985WAT     H1 8646   7.586   2.236   0.522 -2.7065 -1.7243  0.7191
 1985WAT     H2 8647   7.624   2.199   0.648  2.0037  1.3428  0.4454
 1985WAT    EPW 8648   7.634   2.198   0.570 -0.2124  0.1619  0.5172
 1986WAT      O 8649   0.178   5.304   0.941 -0.3077  0.1323 -0.1012
 1986WAT     H1 8650   0.136   5.265   1.007 -2.7239 -0.5161 -1.8620
 1986WAT     H2 8651   0.145   5.385   0.943  0.2153  0.3436 -0.0388
 1986WAT    EPW 8652   0.167   5.311   0.951 -0.0268  0.3310  0.7799
 1987WAT      O 8653   1.821   0.859   0.875 -0.1575  0.2900  0.3849
 1987WAT     H1 8654   1.761   0.807   0.910  1.0387  0.4916  2.9628
 1987WAT     H2 8655   1.855   0.901   0.944  0.7717  2.5190 -1.2953
 1987WAT    EPW 8656   1.817   0.858   0.890  0.1089 -0.6193 -0.4206
 1988WAT      O 8657   3.223   4.852   5.537  0.2043 -0.1424 -0.1032
 1988WAT     H1 8658   3.246   4.779   5.494  1.9652  0.5760 -0.4640
 1988WAT     H2 8659   3.176   4.822   5.604  0.9609 -1.6341 -0.1933
 1988WAT    EPW 8660   3.219   4.837   5.540  0.9545 -0.2746 -0.1800
 1989WAT      O 8661   3.429   1.678   2.496  0.1825  0.5007  0.3500
 1989WAT     H1 8662   3.363   1.734   2.487  0.5072  0.5557 -2.4747
 1989WAT     H2 8663   3.496   1.730   2.519  0.1483  1.0678 -0.7854
 1989WAT    EPW 8664   3.429   1.694   2.498  0.8322  0.0371  0.1025
 1990WAT      O 8665   2.122   4.891   1.644  0.1828 -0.6090 -0.1011
 1990WAT     H1 8666   2.183   4.879   1.704  1.1875  1.4493 -0.6265
 1990WAT     H2 8667   2.050   4.908   1.691  0.5551 -0.7439  0.5265
 1990WAT    EPW 8668   2.120   4.892   1.660 -0.4060  0.1654  0.3703
 1991WAT      O 8669   4.320   6.387   5.493  0.3955 -0.1746 -0.5811
 1991WAT     H1 8670   4.349   6.381   5.575  1.6044 -0.5968 -1.0265
 1991WAT     H2 8671   4.257   6.447   5.498  1.6881  1.1746  0.3403
 1991WAT    EPW 8672   4.315   6.395   5.506 -0.0867 -0.0153 -0.0369
 1992WAT      O 8673   6.734   7.595   6.867 -0.4029  0.1679 -0.1675
 1992WAT     H1 8674   6.742   7.526   6.919  3.1113  1.3159  1.1126
 1992WAT     H2 8675   6.695   7.654   6.917  1.9986  0.9183  0.9619
 1992WAT    EPW 8676   6.729   7.593   6.882  0.6053 -0.4014 -0.1706
 1993WAT      O 8677   3.311   3.713   2.446 -0.2397 -0.4919  0.0607
 1993WAT     H1 8678   3.389   3.698   2.409 -0.9105 -1.9251 -0.8925
 1993WAT     H2 8679   3.287   3.634   2.473 -1.1815  0.0169  0.7193
 1993WAT    EPW 8680   3.319   3.699   2.444  0.7788  0.9834  0.0108
 1994WAT      O 8681   1.066   7.551   1.559 -0.7168 -0.5746 -0.1723
 1994WAT     H1 8682   1.011   7.492   1.592 -1.7190  0.7027  0.5652
 1994WAT     H2 8683   1.014   7.619   1.539  0.5183  0.5068  0.1342
 1994WAT    EPW 8684   1.050   7.553   1.561 -0.0099 -0.1533 -0.5069
 1995WAT      O 8685   2.323   6.294   0.171  0.2847 -0.4204 -0.5244
 1995WAT     H1 8686   2.260   6.255   0.216 -0.0803 -2.0699 -2.3276
 1995WAT     H2 8687   2.312   6.379   0.188 -0.5995 -0.8807  1.4271
 1995WAT    EPW 8688   2.312   6.301   0.180  0.8500  0.0548  0.1162
 1996WAT      O 8689   4.369   0.910   1.762 -0.4644  0.2974  0.2278
 1996WAT     H1 8690   4.450   0.912   1.728 -0.7217  1.4080 -0.3777
 1996WAT     H2 8691   4.330   0.846   1.718  0.7189 -1.8667  2.1209
 1996WAT    EPW 8692   4.375   0.901   1.750 -0.0325 -0.0997  0.5534
 1997WAT      O 8693   5.738   3.780   2.095 -0.3178  0.2841  0.1256
 1997WAT     H1 8694   5.749   3.693   2.088 -0.6296  0.2872 -0.5327
 1997WAT     H2 8695   5.816   3.813   2.073 -0.8948  0.2388 -2.2609
 1997WAT    EPW 8696   5.751   3.772   2.091  1.1860  0.3867 -0.0495
 1998WAT      O 8697   1.960   5.025   0.225  0.4997 -0.0350 -0.1282
 1998WAT     H1 8698   1.893   5.034   0.280  0.8887  1.3483  0.1714
 1998WAT     H2 8699   2.012   4.968   0.265 -0.5294 -1.2077 -0.4152
 1998WAT    EPW 8700   1.958   5.018   0.239 -0.1018  0.3536  0.1939
 1999WAT      O 8701   5.965   7.146   1.064  0.4834 -0.4928 -0.7644
 1999WAT     H1 8702   5.950   7.106   1.140  1.5017  0.1816 -0.1689
 1999WAT     H2 8703   5.886   7.153   1.028  0.0182 -1.0883  0.0888
 1999WAT    EPW 8704   5.951   7.141   1.070 -0.1096  0.4383  0.5910
 2000WAT      O 8705   7.349   1.633   0.348  0.7531 -0.1638 -0.1594
 2000WAT     H1 8706   7.314   1.700   0.391  0.1704  0.2405 -1.2277
 2000WAT     H2 8707   7.423   1.665   0.316  0.5172 -0.0476 -0.5969
 2000WAT    EPW 8708   7.354   1.648   0.350  0.1445  0.2511 -0.6590
 2001WAT      O 8709   7.575   0.559   2.630 -0.4354 -0.1221  0.5808
 2001WAT     H1 8710   7.639   0.537   2.575 -0.6909  1.7953 -0.6077
 2001WAT     H2 8711   7.617   0.599   2.695 -0.3220 -0.0181  0.4442
 2001WAT    EPW 8712   7.591   0.562   2.631 -0.1798 -0.2300 -0.4154
 2002WAT      O 8713   5.120   0.650   5.801  0.1989 -0.5563 -0.0815
 2002WAT     H1 8714   5.182   0.604   5.761 -1.4159 -1.5810 -1.5351
 2002WAT     H2 8715   5.154   0.665   5.880  1.6441 -2.4794 -0.2603
 2002WAT    EPW 8716   5.134   0.645   5.807  0.5295  0.7897 -0.1323
 2003WAT      O 8717   6.114   0.832   2.760  0.0434 -0.0514  0.3776
 2003WAT     H1 8718   6.068   0.790   2.821  0.5294 -0.8848  0.1926
 2003WAT     H2 8719   6.087   0.915   2.767  0.1282 -0.1183  1.7478
 2003WAT    EPW 8720   6.103   0.838   2.770 -0.0063  0.3057  0.1092
 2004WAT      O 8721   7.567   6.683   1.754  0.0439  0.2219 -0.0832
 2004WAT     H1 8722   7.628   6.688   1.816 -0.5791 -0.3473  0.5974
 2004WAT     H2 8723   7.530   6.605   1.768  0.2715 -0.1608 -1.5383
 2004WAT    EPW 8724   7.571   6.673   1.766  0.3302 -0.2645  0.1233
 2005WAT      O 8725   0.838   5.277   0.726  0.5476 -0.0519  0.3554
 2005WAT     H1 8726   0.800   5.289   0.648  1.5819  3.1321  0.1976
 2005WAT     H2 8727   0.923   5.271   0.707  0.5928 -3.1332  1.0311
 2005WAT    EPW 8728   0.845   5.278   0.711 -0.2850  0.0910  0.2577
 2006WAT      O 8729   5.964   6.121   6.217  0.2259 -0.1682 -0.3118
 2006WAT     H1 8730   6.022   6.057   6.205  1.6628  0.8236  0.9848
 2006WAT     H2 8731   6.014   6.190   6.235 -1.3630  0.7737  0.6332
 2006WAT    EPW 8732   5.980   6.122   6.218  0.0534  0.7921 -0.8504
 2007WAT      O 8733   2.083   4.127   1.348  0.1370 -0.2318  0.7388
 2007WAT     H1 8734   2.089   4.155   1.430  1.2405 -0.8462  0.8851
 2007WAT     H2 8735   2.140   4.177   1.305  0.0873 -0.3929  0.4826
 2007WAT    EPW 8736   2.092   4.138   1.353  0.0483  0.2264 -0.0155
 2008WAT      O 8737   4.324   1.947   4.968  0.1055 -0.3140  0.0187
 2008WAT     H1 8738   4.270   1.933   5.034 -0.2824 -0.3895 -0.3096
 2008WAT     H2 8739   4.321   2.034   4.956  0.3098 -0.2799  0.2114
 2008WAT    EPW 8740   4.316   1.958   4.976 -0.0004 -0.2905 -0.0070
 2009WAT      O 8741   3.101   5.471   4.683 -0.1814 -0.1045  0.1803
 2009WAT     H1 8742   3.091   5.554   4.657 -1.3818 -0.9715 -2.3794
 2009WAT     H2 8743   3.066   5.471   4.763  3.0150  2.5242  1.8552
 2009WAT    EPW 8744   3.094   5.483   4.691  0.1631 -0.5233 -0.2123
 2010WAT      O 8745   3.950   1.584   7.257  0.4313 -0.6557  0.6017
 2010WAT     H1 8746   3.927   1.554   7.178  1.0615  2.7691 -1.0897
 2010WAT     H2 8747   4.035   1.604   7.248 -0.1319  2.4899  1.0375
 2010WAT    EPW 8748   3.959   1.582   7.244 -0.6774  0.2720  0.4944
 2011WAT      O 8749   0.235   2.705   3.852  0.4674  0.0888  0.1053
 2011WAT     H1 8750   0.262   2.773   3.900  0.2709  0.1709  0.0991
 2011WAT     H2 8751   0.172   2.738   3.802  0.1590 -0.1637  0.3203
 2011WAT    EPW 8752   0.230   2.720   3.852  0.0725  0.1858  0.0555
 2012WAT      O 8753   5.671   2.258   0.480 -0.3342  0.0268 -0.0984
 2012WAT     H1 8754   5.758   2.252   0.485  0.0778  3.6276 -0.9088
 2012WAT     H2 8755   5.645   2.228   0.558  1.7233  0.1878  0.7270
 2012WAT    EPW 8756   5.680   2.252   0.492  0.6037 -0.5239 -0.7199
 2013WAT      O 8757   6.945   6.731   2.119 -0.5584 -0.7392 -0.1038
 2013WAT     H1 8758   6.985   6.667   2.162 -3.2440 -2.9436 -0.6021
 2013WAT     H2 8759   6.932   6.698   2.039 -1.0725  0.8632 -0.7412
 2013WAT    EPW 8760   6.949   6.717   2.113 -0.8765 -0.4705 -0.2376
 2014WAT      O 8761   1.703   0.529   0.657 -0.4612  0.3446  0.0254
 2014WAT     H1 8762   1.635   0.576   0.683 -0.3600 -0.4218  1.8529
 2014WAT     H2 8763   1.720   0.560   0.577 -0.0724  3.7708  1.2583
 2014WAT    EPW 8764   1.696   0.540   0.649  0.2703 -0.2068 -0.0814
 2015WAT      O 8765   1.676   2.548   3.404  0.6789  0.0948 -0.5527
 2015WAT     H1 8766   1.735   2.597   3.447  0.3929 -0.4496  0.4903
 2015WAT     H2 8767   1.656   2.597   3.335 -0.0426  1.7547  0.7654
 2015WAT    EPW 8768   1.682   2.563   3.400 -0.1851  0.4383  0.3892
 2016WAT      O 8769   0.840   2.652   6.334 -0.3766  0.7706 -0.1517
 2016WAT     H1 8770   0.905   2.629   6.282  0.9358  2.6977  0.5267
 2016WAT     H2 8771   0.819   2.578   6.375  0.3913 -0.1834 -1.4239
 2016WAT    EPW 8772   0.846   2.637   6.333 -0.1778 -0.1017 -0.6288
 2017WAT      O 8773   1.295   1.451   7.062 -0.1546 -0.0251  0.1379
 2017WAT     H1 8774   1.317   1.489   6.987  0.5259 -2.0245 -0.7417
 2017WAT     H2 8775   1.297   1.517   7.119  0.0746  1.4118 -1.4382
 2017WAT    EPW 8776   1.299   1.467   7.059 -0.0526  0.4367 -0.2875
 2018WAT      O 8777   7.021   1.118   5.288  0.3964  0.2400 -0.3975
 2018WAT     H1 8778   7.107   1.112   5.300  0.3789 -0.9838 -0.7236
 2018WAT     H2 8779   7.013   1.168   5.217  0.8493  0.2027 -0.4751
 2018WAT    EPW 8780   7.032   1.124   5.279 -0.0618  0.1429 -0.2100
 2019WAT      O 8781   7.013   2.108   3.799 -0.0125 -0.3079  0.4234
 2019WAT     H1 8782   7.093   2.083   3.777 -0.5311 -1.7677  0.0853
 2019WAT     H2 8783   6.993   2.169   3.740  0.7712 -0.0330  0.4294
 2019WAT    EPW 8784   7.022   2.113   3.787  0.7496  0.1979  0.4244
 2020WAT      O 8785   1.924   0.536   7.469  0.1112 -0.0534  0.0267
 2020WAT     H1 8786   1.936   0.512   7.552  0.2488  0.8912  0.3001
 2020WAT     H2 8787   1.924   0.624   7.474 -1.1572  0.0083 -0.7864
 2020WAT    EPW 8788   1.926   0.546   7.482  0.1054 -0.2618 -0.3650
 2021WAT      O 8789   0.977   4.996   3.103  0.5323  0.6486 -0.0174
 2021WAT     H1 8790   0.953   4.943   3.168  1.9613 -0.0898 -0.0454
 2021WAT     H2 8791   0.919   4.981   3.040  0.2666 -0.0574  0.3871
 2021WAT    EPW 8792   0.965   4.986   3.104  0.3330  0.2150 -0.0272
 2022WAT      O 8793   0.157   6.583   3.904 -0.0485 -0.7301 -0.1517
 2022WAT     H1 8794   0.071   6.600   3.903  0.1616  0.5419  1.1099
 2022WAT     H2 8795   0.192   6.654   3.867  0.5712 -0.3368  1.1339
 2022WAT    EPW 8796   0.150   6.596   3.898 -0.5864  0.4196 -0.6438
 2023WAT      O 8797   2.245   2.733   7.441 -0.2795 -0.1020 -0.4348
 2023WAT     H1 8798   2.173   2.694   7.409 -1.2170  1.7987 -0.7721
 2023WAT     H2 8799   2.307   2.673   7.429 -1.8534 -1.9536  0.2117
 2023WAT    EPW 8800   2.243   2.718   7.434 -0.8886  0.1645  0.2284
 2024WAT      O 8801   1.073   3.407   0.350  0.0779  0.2394 -0.1208
 2024WAT     H1 8802   1.053   3.323   0.342 -0.7944  0.4437 -0.1831
 2024WAT     H2 8803   1.157   3.411   0.325 -0.5769 -0.2107 -2.5950
 2024WAT    EPW 8804   1.083   3.395   0.345 -0.2239 -0.0826  0.0250
 2025WAT      O 8805   6.024   6.174   0.328  0.1623 -0.1253  0.1864
 2025WAT     H1 8806   5.972   6.133   0.385  0.8138 -0.0011  0.8879
 2025WAT     H2 8807   6.031   6.255   0.361 -1.1389  0.5924 -1.2006
 2025WAT    EPW 8808   6.018   6.180   0.341  0.5044 -0.3984 -0.1154
 2026WAT      O 8809   1.423   0.089   7.404  0.3256 -0.3975  0.3382
 2026WAT     H1 8810   1.509   0.073   7.398  1.0305  3.0254 -1.0287
 2026WAT     H2 8811   1.415   0.126   7.483  0.0777 -0.7634  0.4865
 2026WAT    EPW 8812   1.434   0.092   7.415 -0.2069 -0.0665  0.1380
 2027WAT      O 8813   5.196   0.790   6.461 -0.6132  0.0606 -0.3298
 2027WAT     H1 8814   5.154   0.779   6.385  0.5142 -1.0065 -0.8355
 2027WAT     H2 8815   5.223   0.873   6.457 -2.5030  0.7449 -0.0350
 2027WAT    EPW 8816   5.194   0.800   6.449 -0.0209  0.2441 -0.3324
 2028WAT      O 8817   7.569   2.354   2.014 -0.0940  0.1972 -0.0225
 2028WAT     H1 8818   7.521   2.283   2.028  1.8670 -0.9017  1.6189
 2028WAT     H2 8819   7.511   2.412   1.983 -2.4065 -1.0651  1.6395
 2028WAT    EPW 8820   7.553   2.352   2.011  0.1738 -0.0249 -0.4676
 2029WAT      O 8821   4.310   0.211   5.372  0.3309  0.1815 -0.0227
 2029WAT     H1 8822   4.275   0.273   5.423  1.5678  0.5100  0.4574
 2029WAT     H2 8823   4.385   0.246   5.346 -0.1581 -0.0798 -1.9301
 2029WAT    EPW 8824   4.316   0.225   5.376 -0.0713  0.2312 -0.0712
 2030WAT      O 8825   3.238   2.279   0.164  0.0644  0.2828  0.2731
 2030WAT     H1 8826   3.154   2.261   0.149  0.0739  0.7675 -0.3815
 2030WAT     H2 8827   3.252   2.352   0.119  0.0767  1.8816  2.6929
 2030WAT    EPW 8828   3.227   2.287   0.155  0.1682 -0.2851  0.0738
 2031WAT      O 8829   6.786   0.814   2.529  0.3099  0.2785 -0.0253
 2031WAT     H1 8830   6.735   0.753   2.493  1.3507 -0.7298  0.1580
 2031WAT     H2 8831   6.845   0.830   2.467  0.9312 -0.0094  0.4834
 2031WAT    EPW 8832   6.787   0.808   2.514 -0.3554  0.2239  0.4161
 2032WAT      O 8833   2.115   1.144   5.787  0.1518 -0.4030 -0.1231
 2032WAT     H1 8834   2.070   1.178   5.854  1.1744 -0.6469  0.7160
 2032WAT     H2 8835   2.198   1.165   5.806  0.3431  1.0887 -2.2348
 2032WAT    EPW 8836   2.120   1.152   5.799 -0.1367  0.2440 -0.2945
 2033WAT      O 8837   5.334   1.240   1.005  0.4169  0.0743  0.3639
 2033WAT     H1 8838   5.302   1.162   1.024 -2.0403  0.6955 -0.8491
 2033WAT     H2 8839   5.365   1.269   1.082 -2.6306 -0.3335  1.8845
 2033WAT    EPW 8840   5.334   1.233   1.019 -0.1068  0.0616 -0.0221
 2034WAT      O 8841   7.135   6.547   4.503  0.3361  0.1711  0.3812
 2034WAT     H1 8842   7.131   6.465   4.473 -0.3535 -0.1803  1.3738
 2034WAT     H2 8843   7.198   6.583   4.455  0.8988 -1.0388  0.1651
 2034WAT    EPW 8844   7.144   6.540   4.491 -0.0266 -0.1598  0.0996
 2035WAT      O 8845   3.667   1.802   0.184 -0.6358  0.0275  0.0648
 2035WAT     H1 8846   3.625   1.864   0.138 -0.2063 -0.6542 -1.2957
 2035WAT     H2 8847   3.642   1.728   0.145  2.1867 -0.3850 -1.2026
 2035WAT    EPW 8848   3.657   1.800   0.171 -0.2599 -0.1195  0.5030
 2036WAT      O 8849   6.892   2.082   0.518  0.5784 -0.2274 -0.0528
 2036WAT     H1 8850   6.866   2.054   0.596  0.3586  1.4137  0.5036
 2036WAT     H2 8851   6.952   2.023   0.494  0.2205 -1.0895  1.0725
 2036WAT    EPW 8852   6.897   2.069   0.526 -0.0994  0.9294 -0.1895
 2037WAT      O 8853   6.131   6.764   3.947 -0.2594  0.6171 -0.2746
 2037WAT     H1 8854   6.083   6.738   3.879 -0.2981  2.5762 -1.0753
 2037WAT     H2 8855   6.210   6.729   3.932 -0.5460  0.1751 -0.7720
 2037WAT    EPW 8856   6.136   6.755   3.935  0.4026  0.2284  0.3897
 2038WAT      O 8857   5.093   4.926   5.289 -0.1807  0.4558 -0.8266
 2038WAT     H1 8858   5.138   4.863   5.249  0.5350  0.8866 -0.7184
 2038WAT     H2 8859   5.073   4.891   5.366  0.6383  0.5229 -0.5754
 2038WAT    EPW 8860   5.097   4.912   5.295  0.4921  0.1087  0.1746
 2039WAT      O 8861   0.722   0.082   3.314  0.2399  0.5709 -0.1925
 2039WAT     H1 8862   0.755   0.104   3.236  2.5429 -0.9990  0.2433
 2039WAT     H2 8863   0.761   0.139   3.368  3.5837 -2.0449  0.4922
 2039WAT    EPW 8864   0.733   0.094   3.310  0.0803 -0.2713 -0.1864
 2040WAT      O 8865   5.897   0.254   4.440 -0.0123 -0.1469  0.1590
 2040WAT     H1 8866   5.814   0.277   4.448 -0.2980 -1.2875  0.7040
 2040WAT     H2 8867   5.903   0.223   4.359  0.5289  2.3118 -0.8172
 2040WAT    EPW 8868   5.886   0.253   4.430  0.2568  0.5595  0.5158
 2041WAT      O 8869   4.626   6.514   6.510 -0.0656  0.2723 -0.4735
 2041WAT     H1 8870   4.586   6.500   6.434 -2.2108  1.1691  0.4373
 2041WAT     H2 8871   4.620   6.600   6.522  2.0299  0.4471 -0.1641
 2041WAT    EPW 8872   4.619   6.524   6.500 -0.5066 -0.0122 -0.2964
 2042WAT      O 8873   6.741   4.898   0.897  0.1962  0.6967 -0.1965
 2042WAT     H1 8874   6.739   4.973   0.941 -1.5030  0.6530 -0.1300
 2042WAT     H2 8875   6.657   4.876   0.890  0.6674 -1.3600  0.0490
 2042WAT    EPW 8876   6.728   4.906   0.902 -0.2685  0.1586 -0.8042
 2043WAT      O 8877   6.690   3.243   5.459 -0.4315  1.1439 -0.3493
 2043WAT     H1 8878   6.654   3.164   5.448 -0.6530  1.3194 -0.8936
 2043WAT     H2 8879   6.727   3.237   5.539 -0.4584  0.4983 -0.3745
 2043WAT    EPW 8880   6.690   3.230   5.469 -0.2071  0.0910  0.3237
 2044WAT      O 8881   6.226   4.734   3.326  0.0683  0.8852  0.0635
 2044WAT     H1 8882   6.288   4.703   3.379 -1.1888  0.4755  1.3745
 2044WAT     H2 8883   6.173   4.777   3.380 -0.8919  1.0541 -0.9823
 2044WAT    EPW 8884   6.227   4.736   3.341  0.2753 -0.1239 -0.0150
 2045WAT      O 8885   2.483   7.344   3.754  0.0492 -0.1661 -0.5930
 2045WAT     H1 8886   2.538   7.315   3.816 -1.1738  0.1939  0.7303
 2045WAT     H2 8887   2.425   7.279   3.747  1.5763 -1.3797 -3.3330
 2045WAT    EPW 8888   2.482   7.330   3.762  0.1311  0.3595  0.1863
 2046WAT      O 8889   0.163   4.523   3.872 -0.4016  0.1037 -0.4942
 2046WAT     H1 8890   0.207   4.505   3.799 -0.9599  1.1685 -1.1132
 2046WAT     H2 8891   0.199   4.470   3.931 -0.3221 -1.1964 -1.6625
 2046WAT    EPW 8892   0.175   4.512   3.870  0.4309  0.2175  0.3174
 2047WAT      O 8893   1.587   4.051   6.424 -0.3121  0.3971 -0.1792
 2047WAT     H1 8894   1.540   3.985   6.392 -0.5831  1.0918 -1.2686
 2047WAT     H2 8895   1.642   4.072   6.359  0.9630  0.1389  0.7806
 2047WAT    EPW 8896   1.588   4.045   6.410 -0.2352  0.3452  0.3170
 2048WAT      O 8897   6.584   5.804   1.629  0.1298 -0.9186  0.6305
 2048WAT     H1 8898   6.549   5.802   1.548 -1.6329  0.3618  1.3026
 2048WAT     H2 8899   6.649   5.746   1.624  1.5355  0.6860 -2.3425
 2048WAT    EPW 8900   6.588   5.795   1.616 -0.1194 -0.1322 -0.2551
 2049WAT      O 8901   7.158   5.515   6.650  0.8951  0.4315 -0.0977
 2049WAT     H1 8902   7.233   5.551   6.623  1.4008 -0.8300 -0.4291
 2049WAT     H2 8903   7.160   5.525   6.737  1.2816  0.7159 -0.1376
 2049WAT    EPW 8904   7.170   5.522   6.659 -0.5228  0.3972  0.0238
 2050WAT      O 8905   5.239   7.617   5.297 -0.4625 -0.1442 -0.0313
 2050WAT     H1 8906   5.286   7.575   5.237 -0.9682  0.1675 -0.6617
 2050WAT     H2 8907   5.166   7.570   5.302 -0.4866 -0.0818  0.2307
 2050WAT    EPW 8908   5.235   7.604   5.289 -0.5821 -0.0071  0.3183
 2051WAT      O 8909   7.017   3.462   2.967  0.0707 -0.2098  0.0267
 2051WAT     H1 8910   7.044   3.538   3.001 -2.0638  0.6958 -0.1543
 2051WAT     H2 8911   7.060   3.402   3.014  2.3117  1.0579 -0.2482
 2051WAT    EPW 8912   7.027   3.464   2.979  0.7707 -0.3269 -0.1773
 2052WAT      O 8913   0.681   1.305   2.795 -0.0239  0.2218 -0.2628
 2052WAT     H1 8914   0.651   1.367   2.741  0.1777  1.2288  0.7512
 2052WAT     H2 8915   0.637   1.318   2.869  1.0957  0.1238  0.4480
 2052WAT    EPW 8916   0.670   1.316   2.798 -0.4860  0.1762 -0.1865
 2053WAT      O 8917   6.750   6.469   6.607 -0.5520 -0.8886 -0.3723
 2053WAT     H1 8918   6.713   6.544   6.582  0.9055  0.3722  1.0399
 2053WAT     H2 8919   6.774   6.484   6.689  0.1620 -2.7685 -0.1907
 2053WAT    EPW 8920   6.748   6.482   6.615 -0.3987 -0.0727  0.1924
 2054WAT      O 8921   6.257   3.711   0.891  0.2482 -0.4164  0.6088
 2054WAT     H1 8922   6.223   3.639   0.925 -0.6507  0.1315  0.8833
 2054WAT     H2 8923   6.331   3.723   0.936 -0.2128 -0.4929  1.3882
 2054WAT    EPW 8924   6.263   3.702   0.902 -0.6488  0.2209  0.2784
 2055WAT      O 8925   4.445   0.650   6.068 -0.2287  0.6358  0.0504
 2055WAT     H1 8926   4.494   0.694   6.011  0.1772 -0.4687 -0.4798
 2055WAT     H2 8927   4.398   0.596   6.017  0.9630 -1.1842  0.7733
 2055WAT    EPW 8928   4.445   0.649   6.052  0.0273  0.0776  0.1574
 2056WAT      O 8929   2.351   4.232   6.071 -0.0890  0.0047  0.0887
 2056WAT     H1 8930   2.283   4.200   6.116  0.2031 -0.0280  0.5177
 2056WAT     H2 8931   2.387   4.288   6.127 -0.4130  0.8582 -0.5404
 2056WAT    EPW 8932   2.346   4.235   6.086  0.2515 -0.0154 -0.0543
 2057WAT      O 8933   7.592   2.723   5.518  0.7106 -0.0531  0.6306
 2057WAT     H1 8934   7.521   2.757   5.482  1.1299 -0.4138 -0.5854
 2057WAT     H2 8935   7.569   2.640   5.534  1.7011 -1.0916 -2.5418
 2057WAT    EPW 8936   7.578   2.716   5.515  0.1113  0.9003  0.1840
 2058WAT      O 8937   1.319   0.741   0.526 -0.4238 -0.1451 -0.3912
 2058WAT     H1 8938   1.309   0.713   0.444 -2.3056  0.9111 -0.5646
 2058WAT     H2 8939   1.360   0.818   0.517  0.1482 -0.4260 -0.2587
 2058WAT    EPW 8940   1.323   0.748   0.513 -0.1219 -0.2893  0.5068
 2059WAT      O 8941   3.995   1.454   0.065 -0.3027  0.4803  0.1616
 2059WAT     H1 8942   3.991   1.541   0.068 -4.4552  0.4907  0.4031
 2059WAT     H2 8943   3.944   1.434  -0.003 -0.2567 -1.7947  0.7116
 2059WAT    EPW 8944   3.987   1.464   0.055  0.2011 -0.0242  0.4080
 2060WAT      O 8945   6.863   1.178   4.840  0.7443  0.2379 -0.5347
 2060WAT     H1 8946   6.841   1.111   4.788 -0.0302 -1.3026  1.6181
 2060WAT     H2 8947   6.790   1.227   4.841  0.2263 -0.5184  0.2089
 2060WAT    EPW 8948   6.849   1.175   4.832  0.2183 -0.2558  0.0621
 2061WAT      O 8949   5.675   4.283   5.842 -0.5345  0.1386 -0.1370
 2061WAT     H1 8950   5.637   4.283   5.920 -2.1016 -2.2228 -0.7995
 2061WAT     H2 8951   5.759   4.265   5.860 -0.6571  0.6752  1.0558
 2061WAT    EPW 8952   5.682   4.280   5.856  0.0899  0.8748  0.0146
 2062WAT      O 8953   6.724   7.029   2.267 -0.5641  0.2344  0.1489
 2062WAT     H1 8954   6.796   7.026   2.316  0.2571  1.6265 -0.9169
 2062WAT     H2 8955   6.685   6.953   2.284  1.7283 -1.0917 -0.1088
 2062WAT    EPW 8956   6.729   7.017   2.277  0.4110  0.0182 -0.5234
 2063WAT      O 8957   1.385   2.538   6.154  0.3938  0.1683  0.3763
 2063WAT     H1 8958   1.435   2.531   6.225  0.0475  0.3287  0.6369
 2063WAT     H2 8959   1.433   2.499   6.092  1.8539  2.2397  0.0786
 2063WAT    EPW 8960   1.400   2.531   6.155 -0.6711 -0.1291  0.0284
 2064WAT      O 8961   2.560   1.398   4.815 -0.8599  0.4750 -0.4708
 2064WAT     H1 8962   2.643   1.371   4.825 -0.8357  1.1115  1.6175
 2064WAT     H2 8963   2.515   1.323   4.809 -0.1007  0.1260 -2.4298
 2064WAT    EPW 8964   2.566   1.383   4.816 -0.2342 -0.2861 -0.0020
 2065WAT      O 8965   2.264   4.265   1.183  0.0913  0.0015  0.5137
 2065WAT     H1 8966   2.348   4.286   1.197  0.3053  0.2591 -0.9607
 2065WAT     H2 8967   2.234   4.332   1.136 -0.2018 -1.2519 -1.2031
 2065WAT    EPW 8968   2.272   4.278   1.178 -0.2273  0.5277  0.2179
 2066WAT      O 8969   2.086   3.729   0.843  0.0258 -0.7597 -0.0618
 2066WAT     H1 8970   2.081   3.767   0.921 -0.4711 -1.1387  0.0985
 2066WAT     H2 8971   2.161   3.685   0.846 -0.2346 -1.1875  0.4020
 2066WAT    EPW 8972   2.096   3.728   0.855 -0.5111 -0.4664  0.0466
 2067WAT      O 8973   1.601   6.011   4.236  0.0094  0.0913  0.3152
 2067WAT     H1 8974   1.538   6.044   4.286 -1.4628 -1.6877 -0.2760
 2067WAT     H2 8975   1.644   5.957   4.289 -0.4035 -0.4102  0.1452
 2067WAT    EPW 8976   1.598   6.008   4.251 -0.0554  0.2768  0.2110
 2068WAT      O 8977   2.799   0.390   0.695  0.6793  0.4683  0.2969
 2068WAT     H1 8978   2.837   0.367   0.620  1.8206 -0.2089  1.0459
 2068WAT     H2 8979   2.751   0.320   0.715  0.4543  0.6097  0.2580
 2068WAT    EPW 8980   2.798   0.376   0.687 -0.2472  0.2634 -0.3095
 2069WAT      O 8981   2.289   7.467   7.366  0.1835  0.4473 -0.4835
 2069WAT     H1 8982   2.355   7.416   7.392 -1.5734 -2.2222 -0.8297
 2069WAT     H2 8983   2.272   7.517   7.436  0.9503 -0.6189  0.4825
 2069WAT    EPW 8984   2.296   7.467   7.381  0.0769  0.0205 -0.1440
 2070WAT      O 8985   6.290   4.400   3.310  0.3519 -0.0337  0.0094
 2070WAT     H1 8986   6.350   4.424   3.368 -0.3994  1.9863  0.0244
 2070WAT     H2 8987   6.215   4.406   3.354 -0.0721 -0.3215 -0.6492
 2070WAT    EPW 8988   6.288   4.404   3.325 -0.6497 -0.3919  0.7734
 2071WAT      O 8989   0.488   3.790   3.598  0.2257  0.4582  0.0334
 2071WAT     H1 8990   0.458   3.717   3.636 -0.7122  0.4184 -0.7287
 2071WAT     H2 8991   0.440   3.796   3.525  0.5593  1.6306 -0.1120
 2071WAT    EPW 8992   0.476   3.780   3.593  0.1528 -0.6440 -0.3829
 2072WAT      O 8993   5.737   7.406   0.772 -0.1594 -0.4875 -0.1353
 2072WAT     H1 8994   5.821   7.388   0.758 -0.0839 -0.1699 -0.0990
 2072WAT     H2 8995   5.708   7.431   0.693  0.3733  1.7373  0.3093
 2072WAT    EPW 8996   5.745   7.408   0.758 -0.1566 -0.1727 -0.7163
 2073WAT      O 8997   1.828   5.654   4.886 -0.1528 -0.0419 -0.0980
 2073WAT     H1 8998   1.767   5.622   4.832 -0.0791 -1.4499  0.6150
 2073WAT     H2 8999   1.815   5.741   4.882 -0.5321 -0.1446 -1.8875
 2073WAT    EPW 9000   1.817   5.662   4.877 -0.1955  0.1625 -0.2592
 2074WAT      O 9001   3.240   3.035   2.538  0.5016  0.1321 -0.3344
 2074WAT     H1 9002   3.252   2.951   2.516 -1.8343 -0.1493 -0.8154
 2074WAT     H2 9003   3.218   3.073   2.462 -0.3685  0.7461  0.2135
 2074WAT    EPW 9004   3.238   3.028   2.523 -0.0778  0.6241  0.1953
 2075WAT      O 9005   0.608   3.472   6.510  0.1304 -0.0874  0.5359
 2075WAT     H1 9006   0.597   3.386   6.525  2.2221 -0.7765 -1.3106
 2075WAT     H2 9007   0.626   3.504   6.589 -0.2027 -1.4264  1.1887
 2075WAT    EPW 9008   0.609   3.464   6.524 -0.1038  0.0858  0.7182
 2076WAT      O 9009   6.806   1.794   4.392 -0.3979  0.0886 -0.2538
 2076WAT     H1 9010   6.720   1.784   4.382 -0.4778  0.2566  0.2553
 2076WAT     H2 9011   6.831   1.719   4.429 -0.3868  0.1987 -0.0386
 2076WAT    EPW 9012   6.797   1.782   4.396  0.5320  0.1823 -0.0321
 2077WAT      O 9013   3.721   0.941   4.021  0.3782  0.1753 -0.0413
 2077WAT     H1 9014   3.652   0.978   4.058  0.5587 -0.4259  0.9229
 2077WAT     H2 9015   3.691   0.916   3.943 -1.1119 -1.8767  1.0929
 2077WAT    EPW 9016   3.707   0.943   4.015  0.0628 -0.3390  0.1807
 2078WAT      O 9017   0.082   6.114   2.735  0.4307 -0.1842 -0.5996
 2078WAT     H1 9018   0.001   6.138   2.711 -0.0390 -2.6803 -1.8542
 2078WAT     H2 9019   0.122   6.190   2.750 -2.4897  1.1343  1.4496
 2078WAT    EPW 9020   0.076   6.129   2.734 -0.0853  0.6387 -0.2476
 2079WAT      O 9021   1.529   7.250   5.542  0.0872  0.4054 -0.5060
 2079WAT     H1 9022   1.612   7.260   5.569  0.0867  2.1229 -1.0184
 2079WAT     H2 9023   1.528   7.288   5.464 -0.9251 -0.6731 -1.0496
 2079WAT    EPW 9024   1.541   7.258   5.535  0.6428  0.1874  0.0256
 2080WAT      O 9025   2.906   5.620   1.562 -0.4534 -0.1155 -0.2243
 2080WAT     H1 9026   2.985   5.582   1.562 -0.0667  0.6673 -0.4782
 2080WAT     H2 9027   2.855   5.563   1.521 -0.2386 -1.0614  0.7774
 2080WAT    EPW 9028   2.910   5.606   1.556 -0.1145 -0.2285  0.0083
 2081WAT      O 9029   0.445   2.402   6.370 -0.0769  0.3511  0.1570
 2081WAT     H1 9030   0.439   2.485   6.398 -0.4785  0.4064 -0.1014
 2081WAT     H2 9031   0.531   2.390   6.364  0.0174  0.4101  1.2189
 2081WAT    EPW 9032   0.457   2.413   6.373  0.3346  1.4016 -0.2672
 2082WAT      O 9033   4.078   5.723   1.280 -0.3150  0.0257  0.0247
 2082WAT     H1 9034   4.078   5.711   1.366  0.7047 -3.8126 -0.3334
 2082WAT     H2 9035   4.141   5.669   1.252 -0.4824  1.2556 -3.1519
 2082WAT    EPW 9036   4.088   5.714   1.288  0.2898 -0.1131 -0.5522
 2083WAT      O 9037   2.201   7.139   5.413  0.3892 -0.3501  0.7261
 2083WAT     H1 9038   2.286   7.157   5.405  0.3678  0.2695  1.6775
 2083WAT     H2 9039   2.198   7.052   5.408  1.0320 -0.3508  0.2954
 2083WAT    EPW 9040   2.213   7.128   5.411 -0.0596 -0.1350 -0.4429
 2084WAT      O 9041   5.421   2.932   0.450 -0.5274 -0.1999 -0.5616
 2084WAT     H1 9042   5.404   3.013   0.479 -0.9593 -0.6684  0.5743
 2084WAT     H2 9043   5.484   2.904   0.504  0.7589 -0.0804 -1.9416
 2084WAT    EPW 9044   5.427   2.940   0.462 -0.3834 -0.0353 -0.0862
 2085WAT      O 9045   6.478   0.166   0.059  0.0464  0.0673 -0.1528
 2085WAT     H1 9046   6.459   0.234   0.110 -0.1544  0.9530 -1.3633
 2085WAT     H2 9047   6.508   0.202  -0.015 -2.2200 -1.0045 -1.7426
 2085WAT    EPW 9048   6.480   0.181   0.055 -0.2092 -0.1532  0.3219
 2086WAT      O 9049   0.471   2.429   4.731 -0.2308 -0.1905 -0.4690
 2086WAT     H1 9050   0.384   2.427   4.731 -0.2280 -1.3681 -0.5645
 2086WAT     H2 9051   0.493   2.383   4.802  0.2926 -1.4101 -1.3758
 2086WAT    EPW 9052   0.461   2.422   4.742  0.0928  0.0003  0.2260
 2087WAT      O 9053   4.986   4.745   5.058 -0.0281 -0.2155  0.0407
 2087WAT     H1 9054   5.063   4.718   5.089  0.3033  0.7124  0.0602
 2087WAT     H2 9055   4.928   4.701   5.106  0.4643 -1.8866 -0.8245
 2087WAT    EPW 9056   4.989   4.735   5.070 -1.0663 -0.7184  1.3103
 2088WAT      O 9057   7.414   4.741   3.282  0.3480  0.0907  0.2367
 2088WAT     H1 9058   7.411   4.670   3.333  0.1989 -1.2989 -1.6008
 2088WAT     H2 9059   7.330   4.752   3.258  0.7350 -1.0812 -1.9539
 2088WAT    EPW 9060   7.401   4.732   3.286  0.0272  0.5939 -0.0595
 2089WAT      O 9061   5.853   2.825   5.150  0.0745 -0.1517  0.0411
 2089WAT     H1 9062   5.903   2.850   5.217  1.0469 -2.2135  0.1920
 2089WAT     H2 9063   5.909   2.820   5.083  0.1540 -2.4072  0.1844
 2089WAT    EPW 9064   5.869   2.828   5.150  0.5925  0.6987 -0.6128
 2090WAT      O 9065   3.546   5.536   3.452  0.4102 -1.1999  0.3427
 2090WAT     H1 9066   3.604   5.511   3.512  0.3409 -0.5951  0.6721
 2090WAT     H2 9067   3.560   5.481   3.385  3.3381  0.6259 -0.7563
 2090WAT    EPW 9068   3.556   5.524   3.451  0.5035 -0.3170 -0.4358
 2091WAT      O 9069   7.044   1.622   0.521 -0.0641  0.4673  0.3481
 2091WAT     H1 9070   6.964   1.614   0.556 -0.8751  1.7903 -1.0289
 2091WAT     H2 9071   7.051   1.551   0.470 -0.0049 -0.0803  1.1093
 2091WAT    EPW 9072   7.033   1.611   0.518  0.1598  0.0758 -0.3461
 2092WAT      O 9073   2.073   2.581   5.729 -0.0182  0.4698  0.4242
 2092WAT     H1 9074   2.141   2.527   5.735  0.0131  0.4679  0.0294
 2092WAT     H2 9075   2.106   2.652   5.692 -0.1607  0.5890  0.5259
 2092WAT    EPW 9076   2.088   2.583   5.725  0.1448  0.1959  0.2582
 2093WAT      O 9077   1.590   6.352   4.497  0.0177 -0.2671  0.0508
 2093WAT     H1 9078   1.609   6.353   4.412  1.6615 -2.1063  0.3239
 2093WAT     H2 9079   1.527   6.411   4.505  0.9946  1.1776 -2.1573
 2093WAT    EPW 9080   1.583   6.361   4.486 -0.2331  0.1689  0.2017
 2094WAT      O 9081   6.088   2.832   4.973 -0.4092  0.3262  0.4714
 2094WAT     H1 9082   6.133   2.852   5.045 -0.5805  0.9571  0.4105
 2094WAT     H2 9083   6.090   2.906   4.927  1.4890 -0.6394 -1.1542
 2094WAT    EPW 9084   6.095   2.846   4.977 -0.7029 -0.1088  0.0453
 2095WAT      O 9085   7.533   6.993   3.517  0.5232  0.2021  0.1754
 2095WAT     H1 9086   7.590   6.981   3.581 -0.7433 -0.6283  1.1876
 2095WAT     H2 9087   7.484   7.058   3.545  0.0937 -0.0252 -0.0401
 2095WAT    EPW 9088   7.534   7.001   3.530 -0.0762  0.2466  0.0765
 2096WAT      O 9089   3.199   4.354   7.085 -0.5015 -0.9232 -0.3191
 2096WAT     H1 9090   3.187   4.290   7.143 -0.1482  0.9058  1.9418
 2096WAT     H2 9091   3.285   4.366   7.085 -0.4968 -0.8577 -1.2243
 2096WAT    EPW 9092   3.210   4.346   7.094  0.1761 -0.0322 -0.3097
 2097WAT      O 9093   4.709   5.143   2.283 -0.5335 -0.5780  0.3605
 2097WAT     H1 9094   4.745   5.070   2.316 -0.2377 -0.6511 -0.1043
 2097WAT     H2 9095   4.685   5.119   2.202 -0.3557 -0.1368  0.1743
 2097WAT    EPW 9096   4.711   5.129   2.276  0.2759 -0.0970  0.1105
 2098WAT      O 9097   3.706   4.509   7.513 -0.0511 -0.3133 -0.2216
 2098WAT     H1 9098   3.717   4.470   7.590 -2.1148  0.2616  0.4263
 2098WAT     H2 9099   3.620   4.523   7.508 -0.1618 -1.2676 -3.1277
 2098WAT    EPW 9100   3.695   4.505   7.523 -0.7183 -0.2801  0.0592
 2099WAT      O 9101   0.586   5.183   7.424 -0.2889 -0.3902  0.0827
 2099WAT     H1 9102   0.558   5.265   7.430 -2.9635 -1.0332 -1.9174
 2099WAT     H2 9103   0.638   5.174   7.494 -1.2494  2.4649  1.3012
 2099WAT    EPW 9104   0.589   5.194   7.436 -0.3284  0.1896  0.2083
 2100WAT      O 9105   6.080   4.643   7.580 -0.0099  0.2783 -0.2625
 2100WAT     H1 9106   6.132   4.712   7.593  1.2588 -0.7719  0.3849
 2100WAT     H2 9107   6.011   4.659   7.631 -0.1611  1.4758 -0.7979
 2100WAT    EPW 9108   6.077   4.656   7.589  0.6782 -0.0364 -0.2091
 2101WAT      O 9109   2.983   7.045   3.399  0.9685  0.7435 -0.5703
 2101WAT     H1 9110   2.998   7.058   3.314  1.6604  0.0519 -0.5681
 2101WAT     H2 9111   3.001   6.960   3.410  1.5623  0.9781  0.3990
 2101WAT    EPW 9112   2.988   7.035   3.388 -0.8782  0.0945  0.1965
 2102WAT      O 9113   4.488   1.037   3.573  0.2595 -0.4465 -0.5965
 2102WAT     H1 9114   4.475   0.963   3.619  0.0991 -0.0356  0.0330
 2102WAT     H2 9115   4.485   1.010   3.490 -0.6734 -1.0230 -0.4023
 2102WAT    EPW 9116   4.485   1.022   3.568 -0.4258 -0.1425 -1.1069
 2103WAT      O 9117   7.189   4.854   0.839  0.4239 -0.9901 -0.0283
 2103WAT     H1 9118   7.273   4.868   0.859 -0.2245 -0.1134  2.3498
 2103WAT     H2 9119   7.187   4.770   0.817  1.8549 -1.1340  0.3309
 2103WAT    EPW 9120   7.201   4.844   0.839  0.4579  0.6910 -0.5534
 2104WAT      O 9121   3.502   7.161   0.744  0.3664  0.3023  0.0458
 2104WAT     H1 9122   3.496   7.074   0.754  0.0794  0.2634 -0.4172
 2104WAT     H2 9123   3.566   7.184   0.799  1.6062 -0.4355 -1.0384
 2104WAT    EPW 9124   3.511   7.151   0.754 -0.2865 -0.2455  0.1245
 2105WAT      O 9125   2.140   3.432   4.543 -0.2835 -0.0747 -0.1680
 2105WAT     H1 9126   2.196   3.375   4.578 -0.3731  0.0262  0.1366
 2105WAT     H2 9127   2.062   3.399   4.563 -0.3887  1.3059  1.9501
 2105WAT    EPW 9128   2.137   3.419   4.551  0.4202 -0.3357  0.0136
 2106WAT      O 9129   6.299   3.141   7.518 -0.1741  0.2249  0.4395
 2106WAT     H1 9130   6.293   3.096   7.592  0.1947 -0.3654  0.1144
 2106WAT     H2 9131   6.257   3.216   7.536  0.3000  0.2687  1.3800
 2106WAT    EPW 9132   6.292   3.146   7.531 -0.0687 -0.3430  0.0881
 2107WAT      O 9133   7.427   1.260   0.849 -0.1454  0.5454  0.0508
 2107WAT     H1 9134   7.401   1.310   0.783 -0.1357 -0.6055 -0.8647
 2107WAT     H2 9135   7.499   1.221   0.818  0.5386  0.8543  1.1752
 2107WAT    EPW 9136   7.434   1.262   0.835  0.3559  0.1848  0.3645
 2108WAT      O 9137   3.797   6.052   1.658  0.0651 -0.0663  0.0152
 2108WAT     H1 9138   3.812   6.085   1.737 -1.4696  0.3514  0.1558
 2108WAT     H2 9139   3.784   5.967   1.673  0.4032 -0.0982  0.1285
 2108WAT    EPW 9140   3.797   6.045   1.672 -0.0011 -0.1300 -0.5442
 2109WAT      O 9141   6.273   6.557   0.289 -0.0311 -0.2141  0.3815
 2109WAT     H1 9142   6.302   6.640   0.286  1.3471 -0.5948  1.8237
 2109WAT     H2 9143   6.271   6.534   0.205  1.8822  0.5514  0.0544
 2109WAT    EPW 9144   6.277   6.566   0.276  0.3014 -0.1475 -0.2375
 2110WAT      O 9145   1.812   2.339   6.104 -0.6232  0.0388  0.2476
 2110WAT     H1 9146   1.878   2.286   6.082 -1.4022 -0.6225 -0.6006
 2110WAT     H2 9147   1.810   2.333   6.191 -0.5659 -1.2065  0.1885
 2110WAT    EPW 9148   1.822   2.330   6.114  0.2849 -0.3992  0.5034
 2111WAT      O 9149   6.746   5.190   2.134 -0.2394  0.4039 -0.6039
 2111WAT     H1 9150   6.804   5.143   2.179  1.0832  0.5123 -2.0939
 2111WAT     H2 9151   6.729   5.141   2.064 -1.1605  0.8424 -0.7068
 2111WAT    EPW 9152   6.752   5.176   2.130  0.2689  0.5468 -0.1643
 2112WAT      O 9153   6.005   5.882   6.903 -0.1309  0.0369  0.3728
 2112WAT     H1 9154   6.031   5.815   6.952  0.7881 -0.6298 -0.9589
 2112WAT     H2 9155   6.047   5.869   6.827  0.4155  2.3522  0.2048
 2112WAT    EPW 9156   6.015   5.870   6.899  0.3837 -0.3721  0.5157
 2113WAT      O 9157   4.011   3.446   6.406  0.0130 -0.6401  0.4241
 2113WAT     H1 9158   3.985   3.397   6.338 -0.2019 -0.3605  0.3067
 2113WAT     H2 9159   4.056   3.389   6.455  1.2445 -0.5651 -0.5606
 2113WAT    EPW 9160   4.014   3.430   6.403 -0.4504  0.2894  0.3217
 2114WAT      O 9161   2.083   3.182   2.171  0.1612  0.0946  0.2747
 2114WAT     H1 9162   2.083   3.249   2.227 -0.2268  0.9895 -0.7449
 2114WAT     H2 9163   2.163   3.148   2.179  0.9593  1.7146 -0.3553
 2114WAT    EPW 9164   2.095   3.187   2.180  1.0339 -0.3823 -0.0518
 2115WAT      O 9165   0.805   7.383   6.861  0.3123 -0.1463  0.0588
 2115WAT     H1 9166   0.765   7.422   6.793  1.0361  0.2277 -0.1630
 2115WAT     H2 9167   0.835   7.309   6.827  0.6888  0.0482 -0.0493
 2115WAT    EPW 9168   0.804   7.378   6.846  0.2014  0.3517 -0.5130
 2116WAT      O 9169   5.055   5.947   6.221 -0.4363  0.4323 -0.2919
 2116WAT     H1 9170   4.972   5.919   6.223 -1.3907  3.0409 -0.2886
 2116WAT     H2 9171   5.056   6.013   6.277  1.2680  1.4577 -1.4372
 2116WAT    EPW 9172   5.043   5.952   6.230  0.5669  0.1593  0.2023
 2117WAT      O 9173   2.985   2.238   0.056  0.2889  0.5133 -0.5584
 2117WAT     H1 9174   2.921   2.195   0.097 -0.4697  0.2013 -2.0134
 2117WAT     H2 9175   3.023   2.176   0.008  0.5448  1.0549 -1.0588
 2117WAT    EPW 9176   2.981   2.222   0.055  0.1169  0.3326 -0.0536
 2118WAT      O 9177   7.066   0.482   6.890 -0.0937 -0.8360  0.5684
 2118WAT     H1 9178   7.049   0.488   6.805 -0.3326 -1.5229  0.5604
 2118WAT     H2 9179   6.994   0.515   6.927 -0.4273 -1.4715  0.5069
 2118WAT    EPW 9180   7.053   0.488   6.883  0.3988  0.0734 -0.8448
 2119WAT      O 9181   4.710   7.137   5.094  0.3677  0.8276  0.1366
 2119WAT     H1 9182   4.651   7.167   5.150  1.8093  0.0085  2.2089
 2119WAT     H2 9183   4.729   7.058   5.125 -0.2847 -0.6041 -2.7567
 2119WAT    EPW 9184   4.704   7.130   5.107  0.1020 -0.1756 -0.0603
 2120WAT      O 9185   1.612   2.007   3.847 -0.1078 -0.0965 -0.7406
 2120WAT     H1 9186   1.697   2.027   3.848  0.8549 -3.5178  0.2938
 2120WAT     H2 9187   1.593   1.997   3.932 -1.6683  0.8362 -0.9352
 2120WAT    EPW 9188   1.622   2.009   3.860 -0.0390  0.3241  0.1914
 2121WAT      O 9189   3.050   0.350   5.614 -0.0175  0.3436  0.1674
 2121WAT     H1 9190   3.017   0.325   5.537  0.7805  0.8909 -0.3729
 2121WAT     H2 9191   2.987   0.331   5.671 -0.2701 -0.9047 -0.4963
 2121WAT    EPW 9192   3.036   0.343   5.611 -0.0029 -0.6331  0.3841
 2122WAT      O 9193   0.788   3.979   4.782  0.7959 -0.2104 -0.0997
 2122WAT     H1 9194   0.803   3.991   4.868  0.1896 -1.6555  0.2456
 2122WAT     H2 9195   0.782   4.060   4.751 -0.8975  0.3979  1.5898
 2122WAT    EPW 9196   0.789   3.993   4.790  0.4000  0.2992  0.7058
 2123WAT      O 9197   3.784   0.679   5.665  0.1667  0.2789  0.7026
 2123WAT     H1 9198   3.837   0.610   5.661  0.2615  0.2433  2.1217
 2123WAT     H2 9199   3.705   0.645   5.676 -0.1673  0.3438 -1.1334
 2123WAT    EPW 9200   3.780   0.664   5.666  0.2008  0.2934 -0.0094
 2124WAT      O 9201   3.401   0.348   2.404  0.2062 -0.2268  0.0646
 2124WAT     H1 9202   3.353   0.406   2.361 -0.0524  0.7077  1.5545
 2124WAT     H2 9203   3.481   0.359   2.372  0.0387  0.5074 -0.1103
 2124WAT    EPW 9204   3.405   0.358   2.393  0.2703 -0.2128  0.7572
 2125WAT      O 9205   4.298   6.647   6.575 -0.1401  0.3094 -0.0603
 2125WAT     H1 9206   4.298   6.657   6.488 -0.4777  0.7540 -0.0087
 2125WAT     H2 9207   4.213   6.640   6.595 -0.1377  1.3023  0.3574
 2125WAT    EPW 9208   4.285   6.647   6.565  0.3665 -0.1179 -0.0774
 2126WAT      O 9209   7.311   1.164   5.060 -0.1765  0.1946 -0.4567
 2126WAT     H1 9210   7.355   1.239   5.064 -0.5707  0.6177 -2.6353
 2126WAT     H2 9211   7.373   1.105   5.043  0.2029 -0.1132  1.7391
 2126WAT    EPW 9212   7.326   1.166   5.058  0.5876  0.1076  0.0454
 2127WAT      O 9213   5.145   3.168   1.954 -0.0572 -0.2954  0.1574
 2127WAT     H1 9214   5.120   3.128   1.880  1.1941 -1.2851  0.2340
 2127WAT     H2 9215   5.122   3.251   1.941  1.6273 -0.0748 -2.0983
 2127WAT    EPW 9216   5.138   3.174   1.941 -0.3474 -0.4925  0.0250
 2128WAT      O 9217   1.454   3.768   1.371  0.7836 -0.4646  0.4745
 2128WAT     H1 9218   1.418   3.693   1.397 -1.1679  0.4722  0.6847
 2128WAT     H2 9219   1.504   3.744   1.303 -1.1397 -1.7688 -0.5928
 2128WAT    EPW 9220   1.456   3.753   1.364  0.2611 -0.2829  0.0328
 2129WAT      O 9221   2.388   0.241   2.593  0.3571  0.0566  0.4959
 2129WAT     H1 9222   2.406   0.325   2.579  1.9030 -0.1977  0.8555
 2129WAT     H2 9223   2.462   0.200   2.575 -0.3031 -1.2192  0.5599
 2129WAT    EPW 9224   2.401   0.248   2.588 -0.6594 -0.0188  0.1261
 2130WAT      O 9225   4.464   6.432   6.019  0.2205 -0.0605  0.1491
 2130WAT     H1 9226   4.481   6.497   5.965  0.6823  0.6278  1.0948
 2130WAT     H2 9227   4.512   6.366   5.988 -0.8880 -0.2264 -1.2980
 2130WAT    EPW 9228   4.474   6.432   6.007  0.0992  0.2449 -0.1884
 2131WAT      O 9229   5.641   6.652   3.274  0.2410 -0.2644  0.3211
 2131WAT     H1 9230   5.712   6.682   3.314  1.8471 -0.7785 -1.9395
 2131WAT     H2 9231   5.632   6.571   3.305  0.0333  0.1383  1.3391
 2131WAT    EPW 9232   5.650   6.645   3.284 -0.2755 -0.2641 -0.1810
 2132WAT      O 9233   3.047   1.284   6.866 -0.4198 -0.1229 -0.4294
 2132WAT     H1 9234   3.134   1.283   6.856 -0.5995  0.6802 -2.4643
 2132WAT     H2 9235   3.037   1.298   6.951  1.4236 -1.9592  0.1773
 2132WAT    EPW 9236   3.058   1.286   6.877  0.1838  0.3076 -1.0129
 2133WAT      O 9237   2.713   7.021   1.892 -0.0337  0.2557 -0.7479
 2133WAT     H1 9238   2.723   6.983   1.814  2.2631  0.4072 -0.6095
 2133WAT     H2 9239   2.648   6.977   1.929 -0.4505 -0.5211 -2.3251
 2133WAT    EPW 9240   2.705   7.009   1.886  0.1770 -0.3847 -0.6029
 2134WAT      O 9241   2.638   7.311   1.493  0.4119 -0.3328 -0.6011
 2134WAT     H1 9242   2.551   7.314   1.503  0.5793 -0.4880  1.2213
 2134WAT     H2 9243   2.650   7.239   1.444 -0.4103 -1.4494  0.7610
 2134WAT    EPW 9244   2.627   7.301   1.487  0.0779  0.0091 -0.1606
 2135WAT      O 9245   3.187   1.931   3.713 -0.0151  0.3917  0.8247
 2135WAT     H1 9246   3.261   1.961   3.747  0.1123  0.6569  0.3250
 2135WAT     H2 9247   3.138   2.003   3.707  0.2240  0.4801 -0.2178
 2135WAT    EPW 9248   3.190   1.946   3.717 -0.1781  0.0669 -0.1766
 2136WAT      O 9249   4.002   7.080   5.014 -0.5069  0.0520 -0.2729
 2136WAT     H1 9250   3.933   7.134   5.006 -0.1425  0.5981  0.2015
 2136WAT     H2 9251   4.068   7.126   4.980 -0.0627  0.1723  0.7014
 2136WAT    EPW 9252   4.001   7.095   5.008  0.1794  0.6375  0.3345
 2137WAT      O 9253   7.206   0.638   0.207  0.2059 -0.0394 -0.1180
 2137WAT     H1 9254   7.130   0.681   0.210  1.1263  1.7372  3.3486
 2137WAT     H2 9255   7.226   0.637   0.122 -0.9361  4.7319 -0.7261
 2137WAT    EPW 9256   7.198   0.644   0.195  0.3971 -0.0733  0.3058
 2138WAT      O 9257   3.077   2.662   2.526 -0.3561 -0.5004  0.1904
 2138WAT     H1 9258   3.136   2.693   2.469  0.3202 -0.7296  0.7507
 2138WAT     H2 9259   3.088   2.575   2.521 -0.0559 -0.5084  0.9168
 2138WAT    EPW 9260   3.087   2.654   2.517 -0.6356 -0.1706 -0.6312
 2139WAT      O 9261   1.784   5.989   6.031  0.3903  0.6506  0.8418
 2139WAT     H1 9262   1.756   5.914   5.998  0.4547  0.6110  0.8771
 2139WAT     H2 9263   1.854   5.967   6.078  0.7023  0.7991  0.4472
 2139WAT    EPW 9264   1.790   5.975   6.033  0.4632 -0.1176  0.3172
 2140WAT      O 9265   5.907   6.674   3.414  0.7282 -0.3135  0.3588
 2140WAT     H1 9266   5.941   6.617   3.358  1.0207  1.3451 -1.2856
 2140WAT     H2 9267   5.963   6.742   3.410 -0.0709  0.4475  1.5120
 2140WAT    EPW 9268   5.921   6.676   3.405  0.4596  0.2922  0.1861
 2141WAT      O 9269   5.181   2.496   2.370 -0.1951 -0.4889  0.7598
 2141WAT     H1 9270   5.241   2.456   2.321 -0.8641 -2.3752  1.4200
 2141WAT     H2 9271   5.107   2.486   2.324 -0.3122  0.4488  0.7109
 2141WAT    EPW 9272   5.179   2.489   2.356  0.1072  0.2192  0.0835
 2142WAT      O 9273   0.433   1.318   4.538 -0.4711  0.1645 -0.0985
 2142WAT     H1 9274   0.402   1.327   4.619  0.6592 -1.4787  0.5768
 2142WAT     H2 9275   0.520   1.312   4.550 -0.2178  0.6436 -1.5138
 2142WAT    EPW 9276   0.442   1.318   4.552 -0.9919 -0.6767 -0.1049
 2143WAT      O 9277   1.023   1.523   3.045 -0.2062  0.1462 -0.1093
 2143WAT     H1 9278   1.019   1.494   2.963  1.8987  0.9672 -0.5798
 2143WAT     H2 9279   0.965   1.588   3.047 -0.6935 -0.2605 -0.7586
 2143WAT    EPW 9280   1.014   1.528   3.033 -0.1075 -0.2574  0.4267
 2144WAT      O 9281   0.836   5.378   5.805  0.5303  0.3588 -0.5155
 2144WAT     H1 9282   0.749   5.389   5.806 -0.0828 -3.0867  1.9518
 2144WAT     H2 9283   0.864   5.435   5.866 -0.3753 -0.1648  0.4376
 2144WAT    EPW 9284   0.827   5.388   5.814 -0.1188  0.0435 -0.1976
 2145WAT      O 9285   1.869   4.419   6.953 -0.0016  0.3643  0.2919
 2145WAT     H1 9286   1.825   4.347   6.973 -1.8046  1.0077 -1.0214
 2145WAT     H2 9287   1.915   4.437   7.025 -0.8088 -1.1599  1.2246
 2145WAT    EPW 9288   1.870   4.411   6.966  0.2610  0.5927  0.6876
 2146WAT      O 9289   1.952   1.380   3.017 -0.4093 -0.3347 -0.2676
 2146WAT     H1 9290   1.904   1.358   2.947 -0.2473  0.9471 -0.7999
 2146WAT     H2 9291   1.981   1.303   3.046 -3.0688 -1.2181  0.3303
 2146WAT    EPW 9292   1.949   1.365   3.011  0.3237 -0.7651 -0.2624
 2147WAT      O 9293   3.100   5.989   5.021  0.4104 -0.2386  0.4358
 2147WAT     H1 9294   3.081   6.005   4.937 -0.9802 -1.1802  0.5391
 2147WAT     H2 9295   3.177   5.950   5.018 -0.6135 -2.3054 -0.6354
 2147WAT    EPW 9296   3.109   5.986   5.008 -0.0821 -0.4024 -0.1856
 2148WAT      O 9297   2.653   1.542   1.478  0.3765  1.3125  0.1629
 2148WAT     H1 9298   2.679   1.468   1.516 -0.3797  1.6834  1.4662
 2148WAT     H2 9299   2.697   1.604   1.521  0.5096  1.6734 -0.4774
 2148WAT    EPW 9300   2.664   1.540   1.490  0.0364  0.3624 -0.2132
 2149WAT      O 9301   7.529   4.572   7.518  0.5342 -0.2213 -0.6333
 2149WAT     H1 9302   7.516   4.634   7.579 -0.7357 -1.6302  0.6034
 2149WAT     H2 9303   7.550   4.618   7.447 -1.9128  1.8028 -0.1888
 2149WAT    EPW 9304   7.530   4.588   7.517 -0.3877 -0.1153  0.8168
 2150WAT      O 9305   7.256   6.556   5.609 -0.0164 -0.6027 -0.0105
 2150WAT     H1 9306   7.328   6.568   5.658 -0.6442 -0.7961  0.9988
 2150WAT     H2 9307   7.262   6.473   5.583 -0.1467 -0.7906  0.5439
 2150WAT    EPW 9308   7.267   6.546   5.613  0.1673 -0.5544 -0.1939
 2151WAT      O 9309   6.756   6.558   4.303 -0.1269 -0.3035 -0.2386
 2151WAT     H1 9310   6.771   6.602   4.377  2.2544 -0.8557 -0.3168
 2151WAT     H2 9311   6.713   6.616   4.254 -2.0461 -0.0329  1.6232
 2151WAT    EPW 9312   6.752   6.573   4.307 -0.3712 -0.1695 -0.1441
 2152WAT      O 9313   1.800   5.981   5.152 -0.2323  0.4258  0.3688
 2152WAT     H1 9314   1.817   5.983   5.067  0.6571 -1.6631  0.4178
 2152WAT     H2 9315   1.877   5.957   5.187 -0.9086 -0.0037  1.6083
 2152WAT    EPW 9316   1.814   5.978   5.145  0.1506  0.0537 -0.3200
 2153WAT      O 9317   3.056   4.376   2.927 -0.2243  0.1772 -0.4673
 2153WAT     H1 9318   3.097   4.349   2.855 -1.1093 -1.7618 -0.3290
 2153WAT     H2 9319   2.980   4.406   2.897  0.3881  1.7752 -0.5265
 2153WAT    EPW 9320   3.051   4.376   2.912 -0.6524  0.3428  0.5676
 2154WAT      O 9321   3.271   4.624   2.430  0.4385  0.0718 -0.1654
 2154WAT     H1 9322   3.303   4.556   2.386  1.5123  0.1937  0.3873
 2154WAT     H2 9323   3.341   4.656   2.471 -0.5496 -0.1317  1.7658
 2154WAT    EPW 9324   3.286   4.619   2.429  0.1136  0.3636  0.3190
 2155WAT      O 9325   4.258   4.811   0.130 -0.4695  0.4009 -0.1662
 2155WAT     H1 9326   4.245   4.870   0.194  3.1327  1.8342 -0.4874
 2155WAT     H2 9327   4.254   4.858   0.057  2.5703  0.5019 -0.4277
 2155WAT    EPW 9328   4.256   4.827   0.129  0.5925  0.2253  0.0126
 2156WAT      O 9329   2.976   1.815   1.334 -0.0777 -0.1403  0.0234
 2156WAT     H1 9330   2.922   1.879   1.359 -0.5246 -1.2035  1.9194
 2156WAT     H2 9331   2.923   1.747   1.322  0.7402 -0.9881  1.1026
 2156WAT    EPW 9332   2.960   1.815   1.336 -0.6364  0.1939  0.3285
 2157WAT      O 9333   6.522   6.650   6.256 -0.0580  0.0024 -0.3534
 2157WAT     H1 9334   6.524   6.643   6.343 -2.4716  3.8298  0.2719
 2157WAT     H2 9335   6.444   6.686   6.240  0.8056  0.6864 -3.9680
 2157WAT    EPW 9336   6.511   6.654   6.267  1.0081 -0.0461  0.3390
 2158WAT      O 9337   4.958   4.404   3.248 -0.1801 -0.3363  0.2770
 2158WAT     H1 9338   4.965   4.378   3.331 -0.9327  0.4498  0.6025
 2158WAT     H2 9339   4.912   4.340   3.211 -3.5672  1.1467  1.4741
 2158WAT    EPW 9340   4.952   4.391   3.255  0.2716 -0.5857  0.0199
 2159WAT      O 9341   3.437   2.393   1.330 -0.2468  0.3949 -0.0676
 2159WAT     H1 9342   3.412   2.457   1.275 -0.1829  0.8769  0.4568
 2159WAT     H2 9343   3.524   2.398   1.328 -0.2223  1.8087  1.6376
 2159WAT    EPW 9344   3.446   2.403   1.321 -0.6248  0.4112  0.3886
 2160WAT      O 9345   4.183   7.141   1.336  0.1391  0.1199 -0.6627
 2160WAT     H1 9346   4.138   7.102   1.272 -2.1099  1.0550  0.2446
 2160WAT     H2 9347   4.252   7.175   1.296  0.2219 -1.5754 -2.0899
 2160WAT    EPW 9348   4.187   7.140   1.321 -0.3361 -0.0817 -0.0097
 2161WAT      O 9349   0.822   0.198   7.620 -0.2538  0.0011  0.9034
 2161WAT     H1 9350   0.758   0.220   7.565 -0.8138 -0.5648  1.3089
 2161WAT     H2 9351   0.889   0.248   7.595 -0.5808 -0.0432 -0.1077
 2161WAT    EPW 9352   0.822   0.209   7.608  0.1152  0.4202 -0.3867
 2162WAT      O 9353   2.222   6.638   2.174 -0.1924  0.0900 -0.5142
 2162WAT     H1 9354   2.250   6.655   2.255 -2.1784 -1.4188  0.5706
 2162WAT     H2 9355   2.141   6.670   2.173 -0.9507 -1.6966 -1.1739
 2162WAT    EPW 9356   2.214   6.645   2.185 -0.0617  0.1846 -0.2374
 2163WAT      O 9357   0.497   1.794   6.885 -0.4653 -0.1065 -0.2700
 2163WAT     H1 9358   0.478   1.810   6.968 -0.3752 -0.6623 -0.1415
 2163WAT     H2 9359   0.431   1.831   6.841  0.9599  2.8827 -0.1564
 2163WAT    EPW 9360   0.485   1.802   6.891  0.2471 -0.3592 -0.2088
 2164WAT      O 9361   5.570   5.858   2.569  0.0268 -0.3440 -0.1285
 2164WAT     H1 9362   5.624   5.799   2.604  0.6333  0.3116  0.0766
 2164WAT     H2 9363   5.623   5.908   2.521 -0.5089 -0.0896 -0.4611
 2164WAT    EPW 9364   5.586   5.857   2.567  0.0981 -0.3092  0.2681
 2165WAT      O 9365   4.913   1.522   1.378 -0.6591  0.4315 -0.0436
 2165WAT     H1 9366   4.878   1.458   1.425  0.5164  1.6133  2.6194
 2165WAT     H2 9367   4.920   1.487   1.298 -2.5015 -1.7836  0.6634
 2165WAT    EPW 9368   4.909   1.508   1.373 -0.2164 -0.9917 -0.4721
 2166WAT      O 9369   5.607   3.201   3.810  0.0701  0.1039  0.0498
 2166WAT     H1 9370   5.693   3.211   3.816  0.1285  0.1180 -0.7157
 2166WAT     H2 9371   5.584   3.173   3.889  0.8608 -0.5070  0.0746
 2166WAT    EPW 9372   5.616   3.199   3.823  0.0872 -0.4073  0.4890
 2167WAT      O 9373   5.194   2.368   6.132  0.1761 -0.8224  0.4912
 2167WAT     H1 9374   5.230   2.298   6.093  0.3912 -0.7938  0.6350
 2167WAT     H2 9375   5.236   2.435   6.095  0.3649 -0.7948  0.7542
 2167WAT    EPW 9376   5.206   2.368   6.121 -0.3810 -0.4414 -0.1293
 2168WAT      O 9377   2.964   6.185   3.082  0.3684  0.1343 -0.1967
 2168WAT     H1 9378   2.884   6.209   3.105  0.2093  1.6498 -2.0762
 2168WAT     H2 9379   2.953   6.104   3.052 -0.2805  0.0060  0.3681
 2168WAT    EPW 9380   2.951   6.176   3.081 -0.7452  0.1770  0.6450
 2169WAT      O 9381   2.268   6.519   1.940  0.8009  0.4026 -0.0280
 2169WAT     H1 9382   2.184   6.527   1.918  1.0256  0.8465 -0.7888
 2169WAT     H2 9383   2.273   6.557   2.018  0.5702  1.9081 -0.6881
 2169WAT    EPW 9384   2.257   6.526   1.948  0.6176 -0.0790 -0.5636
 2170WAT      O 9385   6.998   5.418   4.706 -0.6634 -0.0081  0.0755
 2170WAT     H1 9386   7.039   5.433   4.631 -0.2666  0.8446  0.4452
 2170WAT     H2 9387   6.990   5.498   4.741 -3.3187 -0.0234 -0.3030
 2170WAT    EPW 9388   7.003   5.432   4.700 -0.1921  0.3364  0.2459
 2171WAT      O 9389   1.311   3.720   2.523  0.3602 -0.2314 -0.5311
 2171WAT     H1 9390   1.282   3.645   2.558 -0.5231 -0.4373 -1.6457
 2171WAT     H2 9391   1.240   3.753   2.484  0.6387  1.3812  0.2315
 2171WAT    EPW 9392   1.296   3.714   2.522  0.9833 -0.6442 -0.0043
 2172WAT      O 9393   1.760   6.615   4.844 -0.5932 -0.0547 -0.0293
 2172WAT     H1 9394   1.805   6.548   4.879 -0.9848  0.5969  1.8232
 2172WAT     H2 9395   1.768   6.602   4.758  0.8355 -1.4824  0.2701
 2172WAT    EPW 9396   1.768   6.603   4.837 -0.2199  0.0131  0.5538
 2173WAT      O 9397   0.222   7.076   2.675 -0.3169 -0.0121 -0.1766
 2173WAT     H1 9398   0.176   7.140   2.713 -1.3791 -0.4179 -0.7703
 2173WAT     H2 9399   0.292   7.069   2.727  0.7078  2.7740 -1.0066
 2173WAT    EPW 9400   0.226   7.084   2.689  0.0828  0.2526  0.7707
 2174WAT      O 9401   5.913   1.413   3.120  0.6225 -0.0138  0.1845
 2174WAT     H1 9402   5.907   1.496   3.093  4.6530  1.1024  1.9514
 2174WAT     H2 9403   5.869   1.412   3.195  1.5983  0.9671  0.8026
 2174WAT    EPW 9404   5.906   1.425   3.127 -0.1070 -0.1129 -0.0666
 2175WAT      O 9405   6.438   7.338   2.943 -0.4198  0.0116 -0.0139
 2175WAT     H1 9406   6.364   7.300   2.916 -0.9583 -0.6194  2.1780
 2175WAT     H2 9407   6.480   7.273   2.983  2.0318 -0.0014 -2.3206
 2175WAT    EPW 9408   6.433   7.323   2.945 -0.1139  0.0427 -0.6541
 2176WAT      O 9409   2.879   6.108   0.979  0.1543 -0.0527  0.7596
 2176WAT     H1 9410   2.910   6.036   0.940  1.0458  1.2320 -1.0125
 2176WAT     H2 9411   2.951   6.146   1.011 -0.3302  0.0118  1.8269
 2176WAT    EPW 9412   2.894   6.103   0.978 -0.0788  0.0158 -0.8483
 2177WAT      O 9413   7.087   4.378   7.570 -0.2586 -0.0078 -0.1604
 2177WAT     H1 9414   7.122   4.338   7.639  0.3196 -0.7941 -0.8965
 2177WAT     H2 9415   7.156   4.413   7.530 -0.5880  0.4010 -0.3743
 2177WAT    EPW 9416   7.103   4.377   7.574 -0.7896  0.1075 -0.5127
 2178WAT      O 9417   3.300   0.417   2.970 -0.1762 -0.6693 -0.6339
 2178WAT     H1 9418   3.240   0.402   2.909 -0.9596  1.1776 -0.3810
 2178WAT     H2 9419   3.253   0.441   3.039  0.7913 -0.6113  0.0171
 2178WAT    EPW 9420   3.284   0.419   2.971 -0.2697 -0.2464  0.7443
 2179WAT      O 9421   2.541   6.395   3.774 -0.1778  0.5189 -0.4301
 2179WAT     H1 9422   2.529   6.322   3.728 -2.2874  0.4202  0.1769
 2179WAT     H2 9423   2.486   6.452   3.738 -0.5856  0.9589  0.8320
 2179WAT    EPW 9424   2.531   6.393   3.762 -0.0900 -0.0035  0.7169
 2180WAT      O 9425   5.805   2.553   3.324  0.2560  0.5919  0.5587
 2180WAT     H1 9426   5.744   2.529   3.267  1.6874 -0.7701 -0.4828
 2180WAT     H2 9427   5.876   2.509   3.299  1.1564  0.4976  2.9479
 2180WAT    EPW 9428   5.807   2.543   3.312  0.3739 -0.7242 -0.4490
 2181WAT      O 9429   1.599   2.587   6.715  0.1315 -0.0235 -0.6497
 2181WAT     H1 9430   1.608   2.501   6.704  1.2439  0.2498 -2.1955
 2181WAT     H2 9431   1.612   2.599   6.800  1.9604 -1.1730 -0.7231
 2181WAT    EPW 9432   1.602   2.576   6.726  0.0376  0.1800  0.3864
 2182WAT      O 9433   6.127   6.014   3.169 -0.1113  0.1565  0.0202
 2182WAT     H1 9434   6.176   5.976   3.108 -0.6463  2.0903 -1.7480
 2182WAT     H2 9435   6.074   5.950   3.195 -0.7128 -0.5089 -2.5195
 2182WAT    EPW 9436   6.126   5.999   3.164 -0.0442  0.2003  0.1087
 2183WAT      O 9437   4.333   2.199   4.846  0.1607 -0.1213 -0.0966
 2183WAT     H1 9438   4.318   2.197   4.760  0.8430 -1.3379 -0.2181
 2183WAT     H2 9439   4.419   2.208   4.852  0.1833 -0.6386  0.4396
 2183WAT    EPW 9440   4.343   2.200   4.834 -0.1493  0.9289 -0.1415
 2184WAT      O 9441   1.239   7.172   1.729  0.0813  0.6973  0.0965
 2184WAT     H1 9442   1.195   7.175   1.804 -0.0879 -0.1553  0.0444
 2184WAT     H2 9443   1.242   7.087   1.710  1.2079  0.7914 -0.2301
 2184WAT    EPW 9444   1.233   7.160   1.737 -0.1398 -0.0620  0.2034
 2185WAT      O 9445   4.969   3.822   2.168 -0.1578 -0.3670  0.1576
 2185WAT     H1 9446   4.952   3.848   2.249  0.2349 -1.9562  0.7860
 2185WAT     H2 9447   5.056   3.809   2.169  0.1086  1.0425 -0.9848
 2185WAT    EPW 9448   4.980   3.824   2.180 -0.8005  0.2407  0.1058
 2186WAT      O 9449   2.031   5.378   5.753 -0.7323 -0.2312  0.0673
 2186WAT     H1 9450   2.114   5.382   5.724 -1.0930 -0.0899 -0.9711
 2186WAT     H2 9451   2.034   5.315   5.813  0.1339 -0.2341  0.0399
 2186WAT    EPW 9452   2.044   5.369   5.758  0.0123 -0.2253  0.4946
 2187WAT      O 9453   5.721   1.504   6.896  0.1724  0.2769 -0.3354
 2187WAT     H1 9454   5.714   1.427   6.856 -0.2833 -1.3008  2.5005
 2187WAT     H2 9455   5.793   1.494   6.945  1.1288  2.3776 -1.2119
 2187WAT    EPW 9456   5.731   1.491   6.898  0.2574  0.0172  0.4514
 2188WAT      O 9457   7.144   7.049   1.572 -0.0677  0.1262 -0.4475
 2188WAT     H1 9458   7.130   7.002   1.500  0.4386 -1.9346  0.7103
 2188WAT     H2 9459   7.229   7.038   1.587 -0.1557  0.5545  0.4435
 2188WAT    EPW 9460   7.155   7.040   1.564  0.2249 -0.2646 -0.1239
 2189WAT      O 9461   0.893   7.195   6.355  0.0808  0.4901 -0.5798
 2189WAT     H1 9462   0.874   7.264   6.405 -0.7365 -0.3702  0.3340
 2189WAT     H2 9463   0.875   7.223   6.274 -1.4232  0.9787 -0.1139
 2189WAT    EPW 9464   0.887   7.210   6.350  0.3161 -0.9256 -0.3006
 2190WAT      O 9465   7.344   1.992   6.885 -0.0978  0.2612  0.3443
 2190WAT     H1 9466   7.325   1.941   6.817 -0.4003 -0.2463  0.8064
 2190WAT     H2 9467   7.380   2.063   6.848  0.9174 -0.5479 -0.2554
 2190WAT    EPW 9468   7.346   1.995   6.870 -0.7451 -0.5960  0.1716
 2191WAT      O 9469   6.714   6.906   3.505  0.1099  0.4002  0.0878
 2191WAT     H1 9470   6.662   6.899   3.575 -0.2889  1.2993 -0.1026
 2191WAT     H2 9471   6.754   6.829   3.502  0.4717  0.4958  1.5624
 2191WAT    EPW 9472   6.712   6.894   3.515 -0.1303 -0.3232 -0.3348
 2192WAT      O 9473   2.018   3.404   3.228  0.0586 -0.3406  0.6998
 2192WAT     H1 9474   2.082   3.431   3.280  0.6099 -0.3199  0.0359
 2192WAT     H2 9475   2.055   3.404   3.149  0.1158 -3.0306  0.6396
 2192WAT    EPW 9476   2.033   3.408   3.224  0.0492 -0.4618  0.2132
 2193WAT      O 9477   4.428   5.609   2.696 -0.1635 -0.0473 -0.1725
 2193WAT     H1 9478   4.352   5.634   2.663  0.1563  0.5353 -0.4898
 2193WAT     H2 9479   4.469   5.571   2.629  0.2053  0.5084 -0.2720
 2193WAT    EPW 9480   4.423   5.607   2.682 -0.1901 -0.4556  0.3828
 2194WAT      O 9481   4.655   7.515   7.359  1.0116 -0.4017 -0.4401
 2194WAT     H1 9482   4.713   7.451   7.350  0.4736 -0.9061 -0.4001
 2194WAT     H2 9483   4.647   7.525   7.445  0.0490 -1.2677 -0.4131
 2194WAT    EPW 9484   4.662   7.507   7.370  0.6765 -0.4093  0.8256
 2195WAT      O 9485   1.989   1.480   3.838 -0.4321  0.1478 -0.2260
 2195WAT     H1 9486   1.989   1.495   3.752 -0.9877 -0.6824 -0.3834
 2195WAT     H2 9487   2.029   1.403   3.845 -0.7446  0.0246  0.2215
 2195WAT    EPW 9488   1.995   1.471   3.826 -0.3887 -0.1016 -0.6238
 2196WAT      O 9489   5.223   3.743   0.299 -0.1299  0.5742 -0.2676
 2196WAT     H1 9490   5.188   3.695   0.235 -0.0956  0.0774  0.0769
 2196WAT     H2 9491   5.153   3.779   0.337 -0.3197 -0.5977  0.5622
 2196WAT    EPW 9492   5.207   3.741   0.295 -0.1386 -0.0902 -0.2337
 2197WAT      O 9493   2.614   1.742   1.063 -0.1153 -0.1008 -0.3853
 2197WAT     H1 9494   2.591   1.701   0.989  2.1048 -1.6058 -0.3580
 2197WAT     H2 9495   2.561   1.708   1.123 -1.8629  1.0450 -1.2154
 2197WAT    EPW 9496   2.603   1.731   1.061  0.0133 -0.4470  0.0035
 2198WAT      O 9497   3.675   7.354   0.154 -0.0331  0.7986  0.4240
 2198WAT     H1 9498   3.657   7.394   0.230 -0.0895  0.1226  0.7741
 2198WAT     H2 9499   3.618   7.390   0.099  0.0797  1.3759  0.6747
 2198WAT    EPW 9500   3.664   7.365   0.157  0.6089 -0.1194 -0.2323
 2199WAT      O 9501   3.094   1.873   5.629  0.3578  0.1086 -0.5547
 2199WAT     H1 9502   3.104   1.960   5.627  3.0639 -0.0792  0.1818
 2199WAT     H2 9503   3.168   1.843   5.593 -0.1661 -1.8873 -0.1061
 2199WAT    EPW 9504   3.106   1.882   5.623  0.2834  0.6668 -0.5941
 2200WAT      O 9505   1.325   6.074   3.298 -0.2466 -0.3982  0.0888
 2200WAT     H1 9506   1.358   6.155   3.305  1.4662 -1.0398 -0.0388
 2200WAT     H2 9507   1.316   6.048   3.381 -0.1786 -0.3193  0.1205
 2200WAT    EPW 9508   1.329   6.082   3.311 -0.3112 -0.1022  0.1662
 2201WAT      O 9509   3.381   2.277   0.884  0.3021  0.1107  0.4449
 2201WAT     H1 9510   3.326   2.268   0.951 -0.5698  1.1777 -0.1059
 2201WAT     H2 9511   3.440   2.334   0.913  1.0769 -0.9182  0.9801
 2201WAT    EPW 9512   3.381   2.284   0.898  0.0385  0.4018 -0.7248
 2202WAT      O 9513   2.038   3.608   5.884 -0.1981  0.2821 -0.6174
 2202WAT     H1 9514   1.960   3.628   5.918  0.8173  0.8914  1.5153
 2202WAT     H2 9515   2.033   3.522   5.872 -0.7774  0.0969  0.7480
 2202WAT    EPW 9516   2.026   3.598   5.887 -0.1903  0.4317 -0.0610
 2203WAT      O 9517   7.566   1.859   0.882 -0.3030 -0.3170 -0.6337
 2203WAT     H1 9518   7.484   1.884   0.897 -0.3542 -0.9576  0.2556
 2203WAT     H2 9519   7.613   1.929   0.907 -0.5682 -0.0116 -0.9853
 2203WAT    EPW 9520   7.561   1.873   0.888 -0.0941 -0.0305 -0.2295
 2204WAT      O 9521   6.745   6.037   1.899 -0.3690  0.2290 -0.1153
 2204WAT     H1 9522   6.737   6.008   1.981  0.8665  2.1617  0.7760
 2204WAT     H2 9523   6.822   6.005   1.873 -1.5726 -1.9270 -1.2894
 2204WAT    EPW 9524   6.755   6.028   1.907 -0.1330 -0.7315  0.0678
 2205WAT      O 9525   6.705   1.275   4.508 -0.7779  0.2970  0.2162
 2205WAT     H1 9526   6.661   1.333   4.556 -1.0023  2.4368 -2.3084
 2205WAT     H2 9527   6.665   1.199   4.525 -1.0067  0.9596  3.0580
 2205WAT    EPW 9528   6.692   1.272   4.518  0.7487  0.6162 -0.4289
 2206WAT      O 9529   4.909   3.162   6.094  0.2419 -0.4094  0.3689
 2206WAT     H1 9530   4.981   3.208   6.077 -0.8565  0.6801 -1.7582
 2206WAT     H2 9531   4.930   3.081   6.071  0.5122  0.0866 -1.2252
 2206WAT    EPW 9532   4.923   3.157   6.088  0.6406 -0.2785 -0.0511
 2207WAT      O 9533   1.333   7.084   0.680  0.3438  0.2554  0.1802
 2207WAT     H1 9534   1.404   7.046   0.713  0.7044  0.0521 -0.7910
 2207WAT     H2 9535   1.303   7.133   0.746  1.9775  1.1590  0.3003
 2207WAT    EPW 9536   1.339   7.086   0.695 -0.2741 -0.2800 -0.4188
 2208WAT      O 9537   2.929   4.644   0.634 -0.0512 -0.5336  0.2188
 2208WAT     H1 9538   2.850   4.659   0.600  0.0396  0.3184  0.3706
 2208WAT     H2 9539   2.984   4.676   0.574  0.1419 -0.0546  0.6435
 2208WAT    EPW 9540   2.926   4.651   0.620 -0.2084  0.0993 -0.7166
 2209WAT      O 9541   4.548   6.697   6.247  0.1697  0.7327  0.3055
 2209WAT     H1 9542   4.607   6.654   6.198 -0.3443  0.4866 -0.1042
 2209WAT     H2 9543   4.598   6.745   6.300  0.8739 -1.6436  2.0151
 2209WAT    EPW 9544   4.564   6.698   6.248  0.3220 -0.1120 -0.1017
 2210WAT      O 9545   7.250   3.903   3.394  0.7555  0.1104 -0.0910
 2210WAT     H1 9546   7.217   3.848   3.454 -1.6797  1.3654 -0.1799
 2210WAT     H2 9547   7.182   3.920   3.342  1.9396  1.7016 -1.1985
 2210WAT    EPW 9548   7.235   3.897   3.395  0.0755  0.0122 -0.2035
 2211WAT      O 9549   0.240   2.252   1.640 -0.2341  0.2792 -0.2858
 2211WAT     H1 9550   0.263   2.168   1.641 -1.7704 -0.2048  1.5574
 2211WAT     H2 9551   0.307   2.292   1.602  1.1530 -1.6169  0.0564
 2211WAT    EPW 9552   0.253   2.245   1.635 -0.4086  0.4180  0.8572
 2212WAT      O 9553   3.563   1.045   4.418  0.0658  0.5013  0.4750
 2212WAT     H1 9554   3.539   1.060   4.336  2.1921 -0.0899 -0.3139
 2212WAT     H2 9555   3.608   1.116   4.440  1.2311 -0.1864  0.3858
 2212WAT    EPW 9556   3.566   1.058   4.409 -0.0786  0.4093 -0.6234
 2213WAT      O 9557   6.884   1.100   6.237  0.3986  0.2352  0.0109
 2213WAT     H1 9558   6.902   1.070   6.157  0.3686 -0.9966  0.4596
 2213WAT     H2 9559   6.826   1.164   6.221 -0.8819 -1.0644 -0.8593
 2213WAT    EPW 9560   6.878   1.105   6.223  0.1372 -0.0158  0.3020
 2214WAT      O 9561   6.082   5.149   2.914  0.2958  0.3917 -0.1767
 2214WAT     H1 9562   6.071   5.204   2.981  0.3797 -1.1636  1.1645
 2214WAT     H2 9563   6.134   5.193   2.860 -1.2516  2.4465 -0.1581
 2214WAT    EPW 9564   6.088   5.164   2.916 -0.5453  0.3981  0.1738
 2215WAT      O 9565   0.968   6.964   3.004 -0.1469 -0.6230  0.2215
 2215WAT     H1 9566   0.899   7.014   2.985 -0.1605 -0.4796  0.6394
 2215WAT     H2 9567   1.036   7.013   2.979 -0.2211 -1.2313 -1.2747
 2215WAT    EPW 9568   0.968   6.979   2.997 -0.2277 -0.0648 -0.3515
 2216WAT      O 9569   3.409   6.826   5.561  0.2444  0.2138  0.4259
 2216WAT     H1 9570   3.433   6.810   5.643  0.6201 -1.4601  0.0258
 2216WAT     H2 9571   3.357   6.759   5.541 -1.6076  1.6961 -0.0444
 2216WAT    EPW 9572   3.405   6.813   5.570  0.5140  0.0411 -0.1091
 2217WAT      O 9573   2.348   2.443   1.015  0.7118 -0.0468 -0.1153
 2217WAT     H1 9574   2.409   2.436   0.953  0.1174 -1.5282 -0.5763
 2217WAT     H2 9575   2.297   2.508   0.987 -0.7404 -1.9802 -2.3456
 2217WAT    EPW 9576   2.349   2.451   1.002 -0.1844 -0.0732  0.0158
 2218WAT      O 9577   1.297   4.663   3.646 -0.2675 -1.0245 -0.3907
 2218WAT     H1 9578   1.346   4.591   3.641  0.1809 -0.7936  0.5045
 2218WAT     H2 9579   1.301   4.685   3.730  2.1356  1.7999 -1.0588
 2218WAT    EPW 9580   1.305   4.656   3.658  0.0622  0.2141 -0.2006
 2219WAT      O 9581   6.724   3.798   3.025  0.9435  0.0835  0.3934
 2219WAT     H1 9582   6.656   3.849   3.045  0.7223  0.0321 -0.2102
 2219WAT     H2 9583   6.779   3.852   2.984  0.8471 -0.0841  0.0341
 2219WAT    EPW 9584   6.722   3.814   3.022 -0.0970 -0.3849  0.1678
 2220WAT      O 9585   3.702   2.156   3.406  0.0168 -0.2623  0.2033
 2220WAT     H1 9586   3.656   2.197   3.344 -0.9257 -0.6940  0.5930
 2220WAT     H2 9587   3.782   2.190   3.398  0.1555 -0.8933 -1.7860
 2220WAT    EPW 9588   3.707   2.167   3.396  0.1765  0.0073 -0.3274
 2221WAT      O 9589   0.483   3.783   3.962 -0.5676  0.0382 -0.2088
 2221WAT     H1 9590   0.464   3.730   4.029  0.2325 -0.7607 -0.6053
 2221WAT     H2 9591   0.570   3.794   3.969 -0.5507  0.3257 -0.8430
 2221WAT    EPW 9592   0.493   3.777   3.973  0.3644 -0.4021 -0.4442
 2222WAT      O 9593   7.560   1.440   1.779  0.4045 -0.1625 -0.0389
 2222WAT     H1 9594   7.490   1.459   1.828  1.0148 -0.3127  0.9256
 2222WAT     H2 9595   7.545   1.482   1.704  0.1242  1.2610  0.7932
 2222WAT    EPW 9596   7.547   1.449   1.775 -0.0352  0.2949  0.2715
 2223WAT      O 9597   5.836   5.467   4.308 -0.5609  0.2651 -0.2006
 2223WAT     H1 9598   5.865   5.545   4.335  2.0168 -0.6048 -0.1894
 2223WAT     H2 9599   5.816   5.427   4.383 -1.3443  0.7005 -0.1685
 2223WAT    EPW 9600   5.838   5.473   4.323  0.1142 -0.6910 -0.1203
 2224WAT      O 9601   4.591   3.238   5.440  0.0160 -0.3896 -0.3619
 2224WAT     H1 9602   4.637   3.184   5.491 -1.5880 -2.1809 -0.7056
 2224WAT     H2 9603   4.593   3.199   5.362  1.2349  1.5861 -1.4118
 2224WAT    EPW 9604   4.598   3.225   5.436  0.0875 -0.8531  0.0794
 2225WAT      O 9605   5.857   1.305   7.589 -0.3497 -0.0379 -0.3896
 2225WAT     H1 9606   5.943   1.312   7.578 -0.2783 -0.4123 -0.1107
 2225WAT     H2 9607   5.847   1.223   7.620 -0.5395  0.8406  2.1431
 2225WAT    EPW 9608   5.868   1.294   7.592 -0.7658 -0.2844 -0.2682
 2226WAT      O 9609   0.153   2.441   3.946 -0.2151  0.3166  0.2168
 2226WAT     H1 9610   0.130   2.399   3.873  1.2403 -0.9912  0.4508
 2226WAT     H2 9611   0.190   2.514   3.917 -1.5480  0.8435 -0.2488
 2226WAT    EPW 9612   0.155   2.446   3.931  0.1073  0.2017  1.1875
 2227WAT      O 9613   2.326   6.916   7.106  0.1289  0.0082  0.0886
 2227WAT     H1 9614   2.307   7.001   7.104  0.9658  0.2023 -1.2883
 2227WAT     H2 9615   2.359   6.904   7.186  0.0836  0.9983  0.2693
 2227WAT    EPW 9616   2.328   6.927   7.117 -0.1888  0.9463 -0.4111
 2228WAT      O 9617   5.715   5.838   1.214  0.4762 -0.2862  0.1101
 2228WAT     H1 9618   5.723   5.755   1.190  0.2248 -0.5392  0.8767
 2228WAT     H2 9619   5.629   5.854   1.206  0.5497 -0.0481 -0.2104
 2228WAT    EPW 9620   5.703   5.828   1.209 -0.3180  0.1815  0.3258
 2229WAT      O 9621   5.987   1.148   7.336 -0.6952  0.3334  0.2284
 2229WAT     H1 9622   6.037   1.156   7.407 -0.9380  1.2301  0.3124
 2229WAT     H2 9623   6.018   1.210   7.282 -1.9057  1.1244  0.4092
 2229WAT    EPW 9624   5.999   1.159   7.338  0.9287 -0.1594 -0.1766
 2230WAT      O 9625   1.480   2.029   5.885  0.0550  0.0301  0.0500
 2230WAT     H1 9626   1.420   1.993   5.938 -0.0615 -1.2628 -0.9109
 2230WAT     H2 9627   1.440   2.101   5.857 -0.3462  0.1125  0.7826
 2230WAT    EPW 9628   1.465   2.035   5.889 -0.3144  0.0493 -0.1975
 2231WAT      O 9629   1.782   0.388   6.364 -0.0038  0.0358 -0.1373
 2231WAT     H1 9630   1.731   0.324   6.334  0.5028 -0.9072  0.9317
 2231WAT     H2 9631   1.732   0.428   6.422 -0.4655  0.9051 -1.1058
 2231WAT    EPW 9632   1.767   0.384   6.368 -0.1578 -0.1916  0.5135
 2232WAT      O 9633   5.003   3.504   6.158  0.1028 -0.1817  0.0914
 2232WAT     H1 9634   5.033   3.443   6.213 -0.7737 -0.2026  0.5844
 2232WAT     H2 9635   5.063   3.566   6.161  0.7990 -0.8354 -0.0858
 2232WAT    EPW 9636   5.016   3.504   6.167 -0.7104 -0.7558 -0.5578
 2233WAT      O 9637   7.339   4.726   4.408  0.3217  0.3164 -0.0632
 2233WAT     H1 9638   7.402   4.785   4.413  1.4953 -0.8951  0.1637
 2233WAT     H2 9639   7.334   4.708   4.323  0.1260  0.5711 -0.1060
 2233WAT    EPW 9640   7.347   4.732   4.397  0.2289  0.4454 -0.5419
 2234WAT      O 9641   0.683   0.259   7.197  0.3988  0.1093 -0.4201
 2234WAT     H1 9642   0.729   0.272   7.124 -1.6732 -0.0472 -1.8588
 2234WAT     H2 9643   0.655   0.176   7.188 -0.6577  0.4028  0.0772
 2234WAT    EPW 9644   0.686   0.248   7.185 -0.1122  0.2523  0.6070
 2235WAT      O 9645   7.180   2.054   7.079 -0.6654 -0.0768 -0.1402
 2235WAT     H1 9646   7.235   2.039   7.013  0.1938 -1.5272  0.8505
 2235WAT     H2 9647   7.232   2.076   7.145 -1.2190 -1.5112  0.8266
 2235WAT    EPW 9648   7.196   2.055   7.079 -0.0718 -0.4196 -0.1130
 2236WAT      O 9649   6.191   5.537   0.110 -0.3975  0.0498 -0.1222
 2236WAT     H1 9650   6.179   5.451   0.111 -0.7122  0.0940  0.1569
 2236WAT     H2 9651   6.164   5.563   0.189 -1.0452  0.4917 -0.4753
 2236WAT    EPW 9652   6.185   5.528   0.122  0.2309  0.3412  0.1567
 2237WAT      O 9653   4.911   6.959   5.443 -0.3422  0.0350 -0.3177
 2237WAT     H1 9654   4.948   6.914   5.507  2.1135  0.2727 -1.4455
 2237WAT     H2 9655   4.868   7.022   5.484  0.5282 -0.2596  1.1077
 2237WAT    EPW 9656   4.910   6.961   5.458 -0.5097 -0.1229  0.0322
 2238WAT      O 9657   6.457   1.957   5.164 -0.5865 -0.2861  0.1291
 2238WAT     H1 9658   6.461   1.886   5.113  1.6563  0.0622 -0.2803
 2238WAT     H2 9659   6.521   2.007   5.134 -2.4077  2.2120  0.0742
 2238WAT    EPW 9660   6.467   1.954   5.152 -0.1758 -0.1601  0.4836
 2239WAT      O 9661   0.186   6.419   6.343 -0.0165 -0.2612  0.2744
 2239WAT     H1 9662   0.238   6.362   6.385 -0.2532 -2.6945 -2.4809
 2239WAT     H2 9663   0.106   6.395   6.367 -0.0798 -0.3984 -0.0743
 2239WAT    EPW 9664   0.182   6.407   6.353 -0.4955  0.4590 -0.3355
 2240WAT      O 9665   1.504   6.507   0.834 -0.1429  0.0287  0.0394
 2240WAT     H1 9666   1.585   6.509   0.803 -0.3264 -0.9709 -0.5291
 2240WAT     H2 9667   1.483   6.422   0.833 -1.4428  0.3241 -0.4991
 2240WAT    EPW 9668   1.513   6.495   0.829 -0.2368 -0.4893 -0.4722
 2241WAT      O 9669   4.479   6.188   3.639 -0.0010  0.2709  0.2800
 2241WAT     H1 9670   4.397   6.166   3.619 -0.5061  1.0218  1.3967
 2241WAT     H2 9671   4.473   6.273   3.658  1.2376  0.5941 -0.5860
 2241WAT    EPW 9672   4.466   6.198   3.639 -0.8625 -0.2738  0.5578
 2242WAT      O 9673   5.399   1.336   0.562 -0.7964  0.4975 -0.0614
 2242WAT     H1 9674   5.342   1.344   0.627  0.2285  1.8893  0.7088
 2242WAT     H2 9675   5.420   1.251   0.564 -0.8585  0.4996  1.3597
 2242WAT    EPW 9676   5.394   1.325   0.572 -0.3994  0.0729 -0.0097
 2243WAT      O 9677   7.095   2.207   2.530 -0.9526  0.5460 -0.2100
 2243WAT     H1 9678   7.067   2.124   2.522 -1.8751  0.8931 -0.7507
 2243WAT     H2 9679   7.116   2.214   2.614 -2.2665  0.1756  0.1718
 2243WAT    EPW 9680   7.094   2.196   2.541 -0.1842 -0.1108 -0.1128
 2244WAT      O 9681   5.202   5.830   3.374 -0.4957  0.5309  0.2599
 2244WAT     H1 9682   5.163   5.793   3.443 -0.7250  0.1839 -0.0514
 2244WAT     H2 9683   5.286   5.814   3.387 -0.6476 -0.8414 -0.2831
 2244WAT    EPW 9684   5.208   5.823   3.386 -0.4653  0.3995  0.3536
 2245WAT      O 9685   0.323   3.395   2.029  0.2198 -0.2827 -0.6361
 2245WAT     H1 9686   0.277   3.350   2.088  0.2613 -0.0254 -0.4117
 2245WAT     H2 9687   0.356   3.461   2.074 -1.6793  1.2893 -1.3924
 2245WAT    EPW 9688   0.321   3.398   2.044 -0.1958 -0.8889  0.4284
 2246WAT      O 9689   4.834   1.450   0.165  0.0661 -0.1687 -0.2893
 2246WAT     H1 9690   4.770   1.509   0.174  1.0180  0.7991  0.3778
 2246WAT     H2 9691   4.904   1.499   0.149  0.9442 -1.0993  0.6098
 2246WAT    EPW 9692   4.835   1.466   0.164 -0.4986  0.4303  0.3543
 2247WAT      O 9693   2.634   0.214   4.777 -0.1544 -0.4628 -0.0071
 2247WAT     H1 9694   2.578   0.254   4.723 -1.2940  0.6911  1.8932
 2247WAT     H2 9695   2.584   0.189   4.843  1.2403 -1.4745  0.7122
 2247WAT    EPW 9696   2.618   0.216   4.779  0.2667 -0.4606  0.2504
 2248WAT      O 9697   4.140   3.798   4.854 -0.5873 -0.0023  0.1160
 2248WAT     H1 9698   4.114   3.869   4.898  0.8782  1.1048 -0.7147
 2248WAT     H2 9699   4.097   3.804   4.778 -1.0028 -0.4021  0.3158
 2248WAT    EPW 9700   4.130   3.810   4.849  0.5658 -0.3172 -0.4075
 2249WAT      O 9701   2.784   1.617   0.478  0.5937 -0.1122 -0.9443
 2249WAT     H1 9702   2.755   1.698   0.466 -0.6298 -0.3827  0.0090
 2249WAT     H2 9703   2.784   1.609   0.565  2.2399 -0.6090 -0.9601
 2249WAT    EPW 9704   2.780   1.628   0.489  0.3003  0.1457  0.3552
 2250WAT      O 9705   0.728   3.781   1.064 -0.0926  0.3030 -0.1432
 2250WAT     H1 9706   0.746   3.754   0.982 -1.4732  0.4786 -0.5221
 2250WAT     H2 9707   0.721   3.867   1.055  2.2304  0.6360  0.6692
 2250WAT    EPW 9708   0.730   3.790   1.050  0.2323  0.1541  0.6904
 2251WAT      O 9709   4.407   3.042   1.304  0.3405  0.1896 -0.0153
 2251WAT     H1 9710   4.337   3.027   1.353 -0.2378 -0.4468 -0.9954
 2251WAT     H2 9711   4.466   3.073   1.360  0.1108 -1.6425  1.3223
 2251WAT    EPW 9712   4.406   3.044   1.319  0.0030  0.3508  1.0835
 2252WAT      O 9713   1.925   3.267   1.964 -0.4820 -0.2739 -0.2362
 2252WAT     H1 9714   1.990   3.266   2.022 -0.6260 -0.9653 -0.0797
 2252WAT     H2 9715   1.915   3.352   1.947 -0.9452  0.0373  1.3449
 2252WAT    EPW 9716   1.933   3.280   1.970  0.5697 -0.0686  0.1044
 2253WAT      O 9717   0.836   2.383   0.642 -0.4381 -0.2104 -0.0917
 2253WAT     H1 9718   0.839   2.410   0.724  1.0867  0.1551 -0.2410
 2253WAT     H2 9719   0.824   2.297   0.649 -0.1133 -0.2117  0.5251
 2253WAT    EPW 9720   0.835   2.374   0.655 -0.0069  0.4775 -0.1047
 2254WAT      O 9721   4.192   3.460   4.912 -0.2168 -0.4981  0.4660
 2254WAT     H1 9722   4.150   3.435   4.983  0.4610 -1.5430  0.5182
 2254WAT     H2 9723   4.213   3.385   4.872 -0.1316  0.0481 -0.5638
 2254WAT    EPW 9724   4.189   3.446   4.916 -0.3587 -0.0977  0.4921
 2255WAT      O 9725   6.195   2.132   0.567  0.5299  0.0257  0.2560
 2255WAT     H1 9726   6.245   2.194   0.533 -0.8161 -0.0981 -2.1441
 2255WAT     H2 9727   6.244   2.060   0.560 -0.1785 -0.2772 -2.9614
 2255WAT    EPW 9728   6.210   2.130   0.561 -0.0282  0.2928 -0.2217
 2256WAT      O 9729   0.856   4.584   3.352  0.6839  0.5273 -1.2543
 2256WAT     H1 9730   0.846   4.507   3.392 -0.6815  0.8568 -0.9131
 2256WAT     H2 9731   0.894   4.563   3.276  0.2084 -0.4931 -1.2212
 2256WAT    EPW 9732   0.860   4.570   3.347 -0.3441  0.9503 -0.0262
 2257WAT      O 9733   5.149   6.280   4.964 -0.6746 -0.3745 -0.0457
 2257WAT     H1 9734   5.174   6.197   4.973  2.3164  0.4549  0.4330
 2257WAT     H2 9735   5.169   6.315   5.042 -1.1180  0.9415 -0.5020
 2257WAT    EPW 9736   5.156   6.273   4.977  0.1610  0.3070 -0.3317
 2258WAT      O 9737   3.334   5.279   7.284 -0.3638 -0.2940 -0.3152
 2258WAT     H1 9738   3.267   5.224   7.293 -1.4114  0.7099 -1.6524
 2258WAT     H2 9739   3.337   5.294   7.198  2.3710 -1.2413 -0.4834
 2258WAT    EPW 9740   3.325   5.273   7.272 -0.4193  0.4648  0.2040
 2259WAT      O 9741   2.318   2.707   0.096 -0.2409  0.2768  0.1899
 2259WAT     H1 9742   2.251   2.724   0.149 -0.4577 -0.4207  0.1516
 2259WAT     H2 9743   2.283   2.716   0.016 -0.2177  0.1908  0.1696
 2259WAT    EPW 9744   2.303   2.711   0.092  0.2472  0.1660 -0.2194
 2260WAT      O 9745   0.126   5.471   5.456  0.1811  0.0605  0.0347
 2260WAT     H1 9746   0.163   5.536   5.502 -0.3942 -0.6689  1.5725
 2260WAT     H2 9747   0.192   5.416   5.441 -0.0669 -0.9048  2.1815
 2260WAT    EPW 9748   0.141   5.473   5.461 -0.2275 -0.1092  0.0629
 2261WAT      O 9749   2.678   1.869   5.888 -0.5234  0.0655 -0.7808
 2261WAT     H1 9750   2.596   1.899   5.889 -0.4005  0.4177 -1.0046
 2261WAT     H2 9751   2.725   1.938   5.863 -0.0228  0.2049  0.4264
 2261WAT    EPW 9752   2.673   1.884   5.885  0.7971 -0.7862  0.3201
 2262WAT      O 9753   3.417   0.625   2.809  0.0754  0.0169  0.1708
 2262WAT     H1 9754   3.399   0.541   2.827  2.5994 -0.5646  0.3552
 2262WAT     H2 9755   3.468   0.620   2.739  0.9163  1.3409  0.6600
 2262WAT    EPW 9756   3.422   0.612   2.801  0.6088 -0.1703 -0.2252
 2263WAT      O 9757   1.809   4.266   0.587  0.3270  0.1635  0.3030
 2263WAT     H1 9758   1.867   4.331   0.577  0.6872 -0.2519 -0.4490
 2263WAT     H2 9759   1.787   4.246   0.505 -0.3889 -0.1249  0.5626
 2263WAT    EPW 9760   1.815   4.273   0.573  0.2612  0.4820  1.0981
 2264WAT      O 9761   1.107   7.427   5.701 -0.0315  0.1274  0.5810
 2264WAT     H1 9762   1.107   7.496   5.753  0.8007 -1.2844  2.5835
 2264WAT     H2 9763   1.191   7.413   5.685 -0.2316  0.0151 -0.4695
 2264WAT    EPW 9764   1.119   7.435   5.706  0.0822  0.0017 -0.0235
 2265WAT      O 9765   3.405   6.576   2.762 -0.0869 -0.2293  0.1278
 2265WAT     H1 9766   3.409   6.559   2.677  1.0117  0.8124 -0.0634
 2265WAT     H2 9767   3.341   6.635   2.768 -0.1171 -0.2499  0.0070
 2265WAT    EPW 9768   3.396   6.582   2.750  0.0976  0.1933 -0.3971
 2266WAT      O 9769   1.470   4.092   0.443  0.6949  0.3199 -0.5391
 2266WAT     H1 9770   1.385   4.072   0.445  0.6095  0.3923 -2.1474
 2266WAT     H2 9771   1.471   4.178   0.452  0.8263  0.0916  2.4782
 2266WAT    EPW 9772   1.458   4.101   0.444 -0.0317 -0.1652 -0.3482
 2267WAT      O 9773   2.933   0.051   1.741  0.0395  0.6172 -0.1074
 2267WAT     H1 9774   2.886  -0.021   1.732 -0.2454  0.7467  0.2973
 2267WAT     H2 9775   2.879   0.114   1.714  0.2802  0.6796 -0.4444
 2267WAT    EPW 9776   2.918   0.050   1.736  0.6644  0.4787  0.0858
 2268WAT      O 9777   0.623   7.445   1.014  0.3797 -0.1007  0.1374
 2268WAT     H1 9778   0.670   7.383   0.974  0.3197  0.8735 -1.5418
 2268WAT     H2 9779   0.540   7.420   1.000  0.3566 -0.6980  1.2510
 2268WAT    EPW 9780   0.617   7.432   1.006 -0.3665  0.0081  0.0538
 2269WAT      O 9781   3.726   4.086   7.533  0.1237 -0.1745  0.3238
 2269WAT     H1 9782   3.640   4.068   7.538  0.6702 -2.9856  2.6128
 2269WAT     H2 9783   3.744   4.077   7.449 -1.7919  0.3253 -0.1950
 2269WAT    EPW 9784   3.716   4.082   7.521  0.1508  0.5301 -0.1670
 2270WAT      O 9785   2.867   2.184   4.837 -0.0151  0.2246  0.0703
 2270WAT     H1 9786   2.851   2.267   4.816  1.6185  0.6822  0.4424
 2270WAT     H2 9787   2.884   2.146   4.760 -0.8539  0.2068 -0.1093
 2270WAT    EPW 9788   2.867   2.190   4.822 -0.1076 -0.0928 -0.0108
 2271WAT      O 9789   1.505   1.224   4.602  0.3482 -0.0838 -0.1332
 2271WAT     H1 9790   1.544   1.147   4.614 -0.0128 -0.4792 -1.3386
 2271WAT     H2 9791   1.433   1.218   4.650  0.7547 -0.1490  0.4782
 2271WAT    EPW 9792   1.500   1.212   4.611 -0.3283 -0.3081 -0.2736
 2272WAT      O 9793   7.370   7.079   2.010  0.3083 -0.3290 -0.1582
 2272WAT     H1 9794   7.386   7.052   1.929  0.3299 -0.2322 -0.1860
 2272WAT     H2 9795   7.311   7.142   2.000  2.4926  1.8212 -0.3939
 2272WAT    EPW 9796   7.364   7.084   1.997 -0.7055 -0.1686 -0.1820
 2273WAT      O 9797   3.868   6.386   5.492 -0.4926  0.3618 -0.3985
 2273WAT     H1 9798   3.943   6.347   5.516  0.0766  1.3254 -0.5688
 2273WAT     H2 9799   3.831   6.407   5.568  0.8090  2.4688 -0.2588
 2273WAT    EPW 9800   3.874   6.383   5.507  0.2416 -0.1833  0.4393
 2274WAT      O 9801   6.982   0.313   2.512  0.3584 -0.0679  0.3814
 2274WAT     H1 9802   7.020   0.392   2.509 -0.9115  0.5479 -0.7272
 2274WAT     H2 9803   6.906   0.329   2.552 -0.6298 -0.3672 -1.2745
 2274WAT    EPW 9804   6.976   0.327   2.517  0.1321 -0.1535  0.4933
 2275WAT      O 9805   0.233   7.337   1.764  0.0957 -0.2205 -0.0075
 2275WAT     H1 9806   0.220   7.419   1.738 -0.9952 -0.7719 -1.3299
 2275WAT     H2 9807   0.155   7.314   1.797  0.7319 -0.3666  1.4894
 2275WAT    EPW 9808   0.219   7.346   1.765 -0.1348  0.0417  0.3560
 2276WAT      O 9809   6.369   2.914   2.202  0.5208  0.3107  0.6714
 2276WAT     H1 9810   6.292   2.894   2.236 -0.2328 -0.6835 -1.4399
 2276WAT     H2 9811   6.360   2.996   2.175 -0.1821 -0.1068 -0.4366
 2276WAT    EPW 9812   6.356   2.923   2.203  0.3290  0.3797 -0.5451
 2277WAT      O 9813   1.015   4.714   0.442  0.0561  0.6167  0.7486
 2277WAT     H1 9814   0.996   4.797   0.463 -0.5692  0.3339  1.3173
 2277WAT     H2 9815   0.974   4.667   0.503  0.7864 -0.1028  0.7032
 2277WAT    EPW 9816   1.007   4.720   0.454  0.6942  0.0688  0.1044
 2278WAT      O 9817   2.798   5.508   1.790  0.1096  0.3031  0.0946
 2278WAT     H1 9818   2.747   5.571   1.821  1.4401  0.7358  1.5323
 2278WAT     H2 9819   2.826   5.539   1.714 -2.4037 -0.3272 -1.1756
 2278WAT    EPW 9820   2.795   5.522   1.784 -0.1170  0.4536 -0.7148
 2279WAT      O 9821   4.949   6.848   6.382 -0.6006  0.6519 -0.2513
 2279WAT     H1 9822   4.965   6.770   6.416  1.6551  0.2316 -2.0652
 2279WAT     H2 9823   4.862   6.853   6.381 -0.7879 -1.7524 -0.0015
 2279WAT    EPW 9824   4.939   6.837   6.387 -0.6113  0.2419  1.1885
 2280WAT      O 9825   6.020   7.372   6.340  1.1014  0.0433 -0.1840
 2280WAT     H1 9826   5.981   7.307   6.297  2.2262 -0.7487 -0.0505
 2280WAT     H2 9827   6.021   7.437   6.281  0.4211 -0.2112 -0.4923
 2280WAT    EPW 9828   6.014   7.372   6.325  0.1552 -0.5937 -0.4343
 2281WAT      O 9829   0.297   0.960   5.103 -0.3816 -0.3350 -0.0458
 2281WAT     H1 9830   0.294   0.877   5.076 -0.6425 -0.2013 -0.4294
 2281WAT     H2 9831   0.374   0.988   5.073 -0.2773 -0.4477  0.1149
 2281WAT    EPW 9832   0.308   0.952   5.095  0.0999  0.6096  0.1387
 2282WAT      O 9833   2.218   3.729   3.544 -0.5303 -0.4426  0.1367
 2282WAT     H1 9834   2.295   3.717   3.584 -0.4566  0.5525  0.3256
 2282WAT     H2 9835   2.164   3.748   3.610 -1.7045 -4.0752  0.4393
 2282WAT    EPW 9836   2.221   3.730   3.560 -0.2709  0.0407  0.5884
 2283WAT      O 9837   6.918   7.135   5.079 -0.0370 -0.1756  0.9019
 2283WAT     H1 9838   6.945   7.146   4.997 -0.4504 -1.4536  0.5669
 2283WAT     H2 9839   6.958   7.198   5.123 -2.0015  2.4193 -0.7261
 2283WAT    EPW 9840   6.928   7.146   5.073  0.2127  0.4872 -0.2312
 2284WAT      O 9841   7.062   1.471   7.425  0.1005  0.1447 -0.5220
 2284WAT     H1 9842   7.138   1.449   7.461  0.4650 -0.8795 -1.8403
 2284WAT     H2 9843   7.077   1.548   7.388  0.3621  0.1571 -0.3891
 2284WAT    EPW 9844   7.075   1.479   7.425 -0.4577 -0.4180  0.3003
 2285WAT      O 9845   2.799   2.163   4.529 -0.1507 -0.7271 -0.1025
 2285WAT     H1 9846   2.773   2.211   4.460  2.1557 -0.5566 -0.9263
 2285WAT     H2 9847   2.817   2.085   4.493  0.4651 -0.8285  0.4204
 2285WAT    EPW 9848   2.798   2.159   4.513 -0.0991 -0.4797 -0.2059
 2286WAT      O 9849   4.412   1.594   2.345 -0.0500  0.3794 -0.1253
 2286WAT     H1 9850   4.493   1.619   2.366  0.8965 -1.7230 -0.9006
 2286WAT     H2 9851   4.363   1.624   2.410  0.9996  3.3501 -0.5652
 2286WAT    EPW 9852   4.417   1.602   2.358  0.1524  0.7209  0.2415
 2287WAT      O 9853   5.675   1.329   3.836 -0.2031 -0.1436 -0.2455
 2287WAT     H1 9854   5.748   1.358   3.875 -1.1051  1.2804  0.4420
 2287WAT     H2 9855   5.622   1.311   3.903 -0.6764 -0.6940 -0.7532
 2287WAT    EPW 9856   5.678   1.331   3.852 -0.8020 -0.4483  0.4544
 2288WAT      O 9857   6.406   2.648   5.015 -0.7136  0.4024 -0.1820
 2288WAT     H1 9858   6.399   2.714   5.071 -2.3021 -0.0788  0.2156
 2288WAT     H2 9859   6.416   2.688   4.938 -0.5444  1.0775  0.1812
 2288WAT    EPW 9860   6.406   2.664   5.012  0.1253 -0.2014  0.8545
 2289WAT      O 9861   4.765   3.029   4.167  0.0678 -0.3501 -0.0758
 2289WAT     H1 9862   4.705   3.044   4.228 -1.5102  0.5454 -1.7517
 2289WAT     H2 9863   4.730   2.966   4.118 -1.0448  2.1305 -2.8005
 2289WAT    EPW 9864   4.751   3.022   4.169  0.0865  0.0809  0.2609
 2290WAT      O 9865   2.763   0.609   2.159 -0.0211  0.2221 -0.1566
 2290WAT     H1 9866   2.691   0.619   2.111  0.3444  1.1706 -0.5499
 2290WAT     H2 9867   2.826   0.602   2.099  0.3283  0.4277  0.1828
 2290WAT    EPW 9868   2.762   0.610   2.143  0.0618 -0.0664 -0.1004
 2291WAT      O 9869   7.138   7.473   7.424  0.4209  0.4017 -0.5193
 2291WAT     H1 9870   7.176   7.502   7.352  1.0649 -0.9221 -0.7546
 2291WAT     H2 9871   7.091   7.404   7.396 -3.3698  2.7044 -0.4974
 2291WAT    EPW 9872   7.137   7.467   7.409 -0.1726 -0.3121  0.1414
 2292WAT      O 9873   1.478   2.141   3.657 -0.1476 -0.4679  0.4752
 2292WAT     H1 9874   1.527   2.097   3.714  1.2265 -0.7140 -0.8193
 2292WAT     H2 9875   1.409   2.089   3.645 -0.0309 -0.8144  1.2326
 2292WAT    EPW 9876   1.475   2.127   3.664  0.5701  0.1477  0.1120
 2293WAT      O 9877   1.133   6.439   3.352  0.5529  0.1215 -0.5455
 2293WAT     H1 9878   1.143   6.511   3.399 -0.1207  0.6916 -1.2477
 2293WAT     H2 9879   1.212   6.427   3.316  0.4165  1.0617 -1.1838
 2293WAT    EPW 9880   1.146   6.448   3.354  0.4564  0.3219 -0.3372
 2294WAT      O 9881   4.494   3.623   4.619  0.1295 -0.4845  0.0743
 2294WAT     H1 9882   4.477   3.678   4.554  0.1147 -1.8258 -1.1007
 2294WAT     H2 9883   4.580   3.625   4.627  0.1740 -0.6741 -0.3306
 2294WAT    EPW 9884   4.504   3.631   4.611 -0.1325  0.1332  0.2656
 2295WAT      O 9885   2.375   2.886   0.375 -0.3243  0.1074  0.3643
 2295WAT     H1 9886   2.301   2.843   0.355 -1.2705  0.7905  2.1390
 2295WAT     H2 9887   2.375   2.953   0.319 -0.5725 -0.3813 -0.2373
 2295WAT    EPW 9888   2.364   2.889   0.363 -0.0171 -0.6568  0.8929
 2296WAT      O 9889   6.986   6.199   0.082  0.0599  0.1078  0.4113
 2296WAT     H1 9890   7.025   6.271   0.053 -0.7179 -0.2282 -1.6197
 2296WAT     H2 9891   7.028   6.134   0.041 -2.2510 -0.2772 -1.6111
 2296WAT    EPW 9892   6.998   6.200   0.072 -0.4487 -0.2911 -0.1998
 2297WAT      O 9893   7.486   2.790   6.482  0.2053 -0.4305 -0.1674
 2297WAT     H1 9894   7.538   2.844   6.437 -0.3114 -1.5199 -2.1900
 2297WAT     H2 9895   7.454   2.737   6.420 -0.1095 -2.3857  1.5840
 2297WAT    EPW 9896   7.489   2.790   6.466 -0.4966  0.0471 -0.2497
 2298WAT      O 9897   1.947   6.490   5.912 -0.0207  0.5257 -0.2723
 2298WAT     H1 9898   1.936   6.431   5.976 -0.6821  2.1184  1.1449
 2298WAT     H2 9899   1.925   6.446   5.840 -1.8738 -0.5797  0.8898
 2298WAT    EPW 9900   1.942   6.474   5.911  0.5699  0.6286  0.3133
 2299WAT      O 9901   5.434   4.752   1.954 -0.3329  0.1681 -0.0745
 2299WAT     H1 9902   5.418   4.748   1.869  2.5532 -1.1374 -0.6877
 2299WAT     H2 9903   5.405   4.675   1.984  0.7411 -0.3613 -0.3567
 2299WAT    EPW 9904   5.428   4.740   1.946  0.2400 -0.4202  0.0605
 2300WAT      O 9905   0.014   1.349   1.451 -0.3518 -0.3817  0.1287
 2300WAT     H1 9906   0.056   1.358   1.376  2.4326 -1.1836  1.4405
 2300WAT     H2 9907   0.021   1.427   1.489 -0.2837 -0.4282  0.2146
 2300WAT    EPW 9908   0.022   1.362   1.446 -0.1323  0.3846 -0.6937
 2301WAT      O 9909   1.047   0.385   7.538  0.2920 -0.1674  0.4438
 2301WAT     H1 9910   1.130   0.403   7.517  0.3297 -0.7792  0.0559
 2301WAT     H2 9911   1.034   0.433   7.609  0.6807  0.6710 -0.0329
 2301WAT    EPW 9912   1.058   0.395   7.545  0.0934 -0.1852  0.2984
 2302WAT      O 9913   3.547   4.479   3.043 -0.1953 -0.3360  0.0087
 2302WAT     H1 9914   3.534   4.430   3.114  0.3313 -1.0601 -0.3865
 2302WAT     H2 9915   3.552   4.421   2.979  1.0375  0.1888 -0.3901
 2302WAT    EPW 9916   3.546   4.463   3.044 -0.0275  0.0853  0.6003
 2303WAT      O 9917   1.507   1.457   6.389  0.0380 -0.0266 -0.0196
 2303WAT     H1 9918   1.532   1.416   6.462 -0.3756  0.2854  0.2972
 2303WAT     H2 9919   1.430   1.421   6.372  0.8224 -1.2566 -1.2007
 2303WAT    EPW 9920   1.500   1.445   6.397  0.8308  0.1723 -0.2273
 2304WAT      O 9921   6.634   6.020   3.343  0.3116 -0.0697 -0.5040
 2304WAT     H1 9922   6.589   5.946   3.332 -0.5553  0.1112  1.4043
 2304WAT     H2 9923   6.574   6.077   3.371  1.1014  1.1631 -1.2247
 2304WAT    EPW 9924   6.619   6.018   3.346 -0.0150  0.1831 -0.0424
 2305WAT      O 9925   6.416   4.554   1.516  0.3354 -0.0834 -0.6160
 2305WAT     H1 9926   6.420   4.493   1.577  1.2038 -0.8004 -1.3461
 2305WAT     H2 9927   6.443   4.513   1.444  0.3213  0.9861 -1.2634
 2305WAT    EPW 9928   6.421   4.539   1.514 -0.2731 -0.3217  0.4633
 2306WAT      O 9929   4.682   4.977   2.076  0.1153  0.3611 -0.7570
 2306WAT     H1 9930   4.667   4.892   2.070 -0.1733  0.4020 -0.6670
 2306WAT     H2 9931   4.760   4.988   2.040  0.7536 -0.1292  0.4462
 2306WAT    EPW 9932   4.691   4.966   2.070 -0.7459  0.0266 -0.5340
 2307WAT      O 9933   0.209   7.526   4.533 -0.3075  0.3884 -0.0116
 2307WAT     H1 9934   0.212   7.613   4.525 -0.9596  0.4420  0.2585
 2307WAT     H2 9935   0.284   7.506   4.574  0.4044  0.6887 -1.1123
 2307WAT    EPW 9936   0.221   7.536   4.538  0.0101 -0.2410 -0.3815
 2308WAT      O 9937   5.368   0.257   2.883  0.1643  0.0458 -0.2773
 2308WAT     H1 9938   5.322   0.272   2.955 -0.0227  0.0027 -0.3879
 2308WAT     H2 9939   5.411   0.332   2.870  1.9989 -0.6622  1.1710
 2308WAT    EPW 9940   5.368   0.270   2.892  0.5217 -0.4487 -0.1942
 2309WAT      O 9941   1.183   4.055   1.847  0.1651  0.3862  0.8241
 2309WAT     H1 9942   1.104   4.041   1.813  0.8865  1.8781 -1.8021
 2309WAT     H2 9943   1.192   4.142   1.843  1.8047  0.2756  1.4125
 2309WAT    EPW 9944   1.173   4.066   1.841 -0.4060 -0.3451 -0.5221
 2310WAT      O 9945   2.403   4.568   1.008 -0.3138  0.4104  0.1335
 2310WAT     H1 9946   2.437   4.500   1.050 -1.2566 -0.4943 -0.5203
 2310WAT     H2 9947   2.416   4.634   1.064 -0.9140 -0.6197  1.5652
 2310WAT    EPW 9948   2.410   4.568   1.023 -0.2735 -0.1361  0.3731
 2311WAT      O 9949   3.683   3.901   5.931 -0.0756 -0.2098 -0.3006
 2311WAT     H1 9950   3.672   3.971   5.982  2.0204 -0.1406  0.1356
 2311WAT     H2 9951   3.655   3.927   5.853 -1.7131  0.2502  0.4089
 2311WAT    EPW 9952   3.677   3.915   5.927  0.0718  0.1763  0.2919
 2312WAT      O 9953   6.894   6.997   2.015  0.2304 -0.0728 -0.5270
 2312WAT     H1 9954   6.837   7.042   2.063 -1.8417 -0.2950 -2.6476
 2312WAT     H2 9955   6.915   6.929   2.066  0.7775  1.4151  1.3480
 2312WAT    EPW 9956   6.889   6.994   2.030  0.4333  0.4047 -0.0648
 2313WAT      O 9957   3.070   7.451   4.987  0.0549  0.2424 -1.0318
 2313WAT     H1 9958   3.032   7.475   4.912  1.9922  0.6635 -1.9499
 2313WAT     H2 9959   3.150   7.486   4.981  0.4190 -0.1441  1.0276
 2313WAT    EPW 9960   3.076   7.460   4.975 -0.2564 -0.7169  0.3110
 2314WAT      O 9961   6.212   1.500   2.440  0.0308 -0.6308 -0.1488
 2314WAT     H1 9962   6.235   1.584   2.437 -0.6545 -0.3434  1.4683
 2314WAT     H2 9963   6.140   1.497   2.390 -0.9553  0.1476  1.1467
 2314WAT    EPW 9964   6.205   1.512   2.432  0.1138  0.3369 -0.1018
 2315WAT      O 9965   5.242   0.922   5.345  0.1130 -0.1787  0.0710
 2315WAT     H1 9966   5.317   0.912   5.388  1.6148 -0.9470 -2.4705
 2315WAT     H2 9967   5.245   1.004   5.316 -0.3153 -0.0318  0.4341
 2315WAT    EPW 9968   5.253   0.933   5.347  0.7112  0.3708  0.0364
 2316WAT      O 9969   1.690   6.501   3.058 -0.2187 -0.8452  0.2403
 2316WAT     H1 9970   1.698   6.581   3.090  0.8507 -0.9983  0.4123
 2316WAT     H2 9971   1.689   6.513   2.971  1.4519 -0.7271  0.2119
 2316WAT    EPW 9972   1.691   6.514   3.050  0.0824 -0.2608 -0.3669
 2317WAT      O 9973   2.223   1.641   1.282 -0.3969  0.2361  0.3274
 2317WAT     H1 9974   2.226   1.672   1.200 -3.4421 -0.3491 -0.1204
 2317WAT     H2 9975   2.157   1.685   1.318 -1.1437 -1.7204  1.4676
 2317WAT    EPW 9976   2.214   1.652   1.275 -0.2215 -0.2081 -0.2593
 2318WAT      O 9977   4.861   6.098   0.520 -0.3403  0.1481 -0.2423
 2318WAT     H1 9978   4.818   6.156   0.569 -0.4018 -0.1680  0.0812
 2318WAT     H2 9979   4.835   6.021   0.553 -0.3820 -0.0651 -0.7723
 2318WAT    EPW 9980   4.851   6.095   0.532 -0.6866  0.4742 -0.5046
 2319WAT      O 9981   4.753   7.144   1.621  0.0696 -0.4613  0.6286
 2319WAT     H1 9982   4.684   7.159   1.569 -1.5062 -0.6943  2.5063
 2319WAT     H2 9983   4.744   7.060   1.643  0.5339 -0.3093  1.4351
 2319WAT    EPW 9984   4.741   7.134   1.617  0.2759 -0.4411 -0.2170
 2320WAT      O 9985   7.472   4.400   1.929 -0.3267 -0.0710 -0.3460
 2320WAT     H1 9986   7.442   4.375   1.851 -1.6153 -0.2123  0.1715
 2320WAT     H2 9987   7.402   4.435   1.968  0.7947  2.0523 -0.0683
 2320WAT    EPW 9988   7.457   4.402   1.923  0.4396  0.2196 -0.4041
 2321WAT      O 9989   1.509   2.862   2.311 -0.7172  1.1152 -0.5888
 2321WAT     H1 9990   1.577   2.845   2.259 -0.1129 -0.2996  0.6093
 2321WAT     H2 9991   1.524   2.945   2.336 -0.3372  1.3809 -1.6334
 2321WAT    EPW 9992   1.522   2.872   2.307  0.2615  0.0116  0.0611
 2322WAT      O 9993   1.279   2.200   4.734  0.2937 -0.1138 -0.2339
 2322WAT     H1 9994   1.297   2.115   4.746  0.6845  0.0527  0.4139
 2322WAT     H2 9995   1.358   2.237   4.732  0.1274  0.2203 -0.6344
 2322WAT    EPW 9996   1.293   2.193   4.736 -0.7979 -0.1669 -0.4091
 2323WAT      O 9997   6.686   0.339   1.783  0.3597 -0.2485  0.1076
 2323WAT     H1 9998   6.727   0.340   1.706  0.2420  1.1555  0.0327
 2323WAT     H2 9999   6.750   0.355   1.840  0.1193  0.9338  0.0785
 2323WAT    EPW10000   6.702   0.342   1.780 -0.0710 -0.1324 -0.6585
 2324WAT      O10001   7.560   0.370   2.286 -0.0397 -0.0743 -0.5137
 2324WAT     H110002   7.592   0.451   2.281  1.1347 -0.4658  0.1918
 2324WAT     H210003   7.596   0.329   2.218  0.8565 -0.4621  0.1653
 2324WAT    EPW10004   7.570   0.376   2.276 -0.2316  0.4402 -0.2507
 2325WAT      O10005   3.543   1.196   0.268 -0.2634 -0.1294 -0.0676
 2325WAT     H110006   3.599   1.148   0.314 -0.2475 -1.1880 -1.1625
 2325WAT     H210007   3.560   1.278   0.295  1.2699 -0.4951  0.1871
 2325WAT    EPW10008   3.554   1.201   0.279 -0.3350 -0.4210 -0.1055
 2326WAT      O10009   0.817   1.619   3.396  0.3386  0.2875 -0.3585
 2326WAT     H110010   0.834   1.534   3.388 -1.5949 -0.3650  1.4960
 2326WAT     H210011   0.885   1.658   3.357  0.6988 -2.0910 -2.3125
 2326WAT    EPW10012   0.829   1.613   3.389 -0.4161 -0.2946 -0.0932
 2327WAT      O10013   2.196   1.127   7.480  0.1309 -0.2100  0.1018
 2327WAT     H110014   2.133   1.096   7.531 -0.3260  0.6699  0.0841
 2327WAT     H210015   2.219   1.057   7.432 -0.3656 -0.7026  0.5629
 2327WAT    EPW10016   2.190   1.112   7.480  0.5093 -0.0645 -0.2124
 2328WAT      O10017   2.871   1.087   7.493 -0.2163 -0.4321  0.1313
 2328WAT     H110018   2.832   1.145   7.545  1.6806  0.1607  0.9786
 2328WAT     H210019   2.955   1.095   7.512  0.3481 -1.7750 -1.4846
 2328WAT    EPW10020   2.877   1.097   7.503 -0.0994 -0.2721 -0.2802
 2329WAT      O10021   7.060   0.470   2.754 -0.4010  0.4646 -0.3134
 2329WAT     H110022   7.023   0.400   2.717  0.1173  0.3239 -0.5772
 2329WAT     H210023   7.067   0.448   2.838  2.0258 -0.8646 -0.7459
 2329WAT    EPW10024   7.056   0.457   2.761 -0.3132  0.1736  0.1255
 2330WAT      O10025   2.873   5.092   6.337  0.3855 -0.3104 -0.1599
 2330WAT     H110026   2.924   5.134   6.281 -0.6323 -1.2038 -1.8357
 2330WAT     H210027   2.868   5.146   6.405  2.6352  0.2811 -0.3801
 2330WAT    EPW10028   2.880   5.106   6.339 -0.2930  0.5925 -0.2021
 2331WAT      O10029   6.338   6.775   1.334 -0.3348  0.4954  0.0194
 2331WAT     H110030   6.342   6.698   1.374 -0.6129 -0.4272 -1.6652
 2331WAT     H210031   6.361   6.832   1.397 -0.3113 -0.9173  1.3355
 2331WAT    EPW10032   6.342   6.772   1.349 -0.0255  0.3087  0.4158
 2332WAT      O10033   2.177   3.499   3.429 -0.3665  0.0969  0.7765
 2332WAT     H110034   2.255   3.461   3.419 -0.4875 -0.9177  3.1481
 2332WAT     H210035   2.197   3.580   3.456 -0.1719  0.3404 -0.0388
 2332WAT    EPW10036   2.192   3.506   3.431  0.1566  0.1501 -0.1721
 2333WAT      O10037   3.935   1.533   0.543 -0.2309 -0.4921  0.3944
 2333WAT     H110038   3.920   1.461   0.495  0.6154 -0.2247 -0.3046
 2333WAT     H210039   4.009   1.513   0.586 -0.3230 -0.2626  0.6635
 2333WAT    EPW10040   3.944   1.519   0.542  0.3807  0.4329  0.0955
 2334WAT      O10041   6.601   0.654   2.832  0.3834 -0.0215  0.4416
 2334WAT     H110042   6.686   0.670   2.827  0.3107 -0.0383 -1.7078
 2334WAT     H210043   6.564   0.733   2.827  0.2530  0.0000  1.5147
 2334WAT    EPW10044   6.608   0.668   2.830  0.7500 -0.0939  0.4335
 2335WAT      O10045   5.914   7.325   6.945  0.2926  0.0250 -0.0966
 2335WAT     H110046   5.935   7.401   6.982  1.0243 -0.2577  0.0773
 2335WAT     H210047   5.855   7.347   6.884  1.0011  0.8083 -0.5069
 2335WAT    EPW10048   5.908   7.339   6.942  0.1360 -0.3262  0.3470
 2336WAT      O10049   3.597   0.465   4.576 -0.0038 -0.5542 -0.6822
 2336WAT     H110050   3.657   0.412   4.611 -0.6956 -1.3013 -0.5989
 2336WAT     H210051   3.594   0.532   4.631 -1.0579 -1.7011  0.7616
 2336WAT    EPW10052   3.605   0.467   4.589 -0.2464  0.0806  0.0050
 2337WAT      O10053   5.667   4.274   4.882 -0.2017 -0.0293 -0.6049
 2337WAT     H110054   5.751   4.297   4.876 -0.3693  0.4275 -1.3254
 2337WAT     H210055   5.634   4.294   4.803 -0.5088 -2.1677 -1.0955
 2337WAT    EPW10056   5.675   4.281   4.869 -0.4200  0.2717 -0.0244
 2338WAT      O10057   6.415   2.593   0.362 -0.0118  0.8965 -0.5534
 2338WAT     H110058   6.362   2.534   0.399  1.0857  0.0528 -0.2852
 2338WAT     H210059   6.489   2.548   0.348 -0.1378  1.3460 -3.1767
 2338WAT    EPW10060   6.418   2.578   0.366  0.1886 -0.2367  0.1043
 2339WAT      O10061   6.926   7.504   2.539  1.1259  0.3580 -0.1582
 2339WAT     H110062   6.909   7.563   2.477 -1.0088 -0.2282 -0.2186
 2339WAT     H210063   6.985   7.451   2.501 -0.3024 -0.1336 -1.8279
 2339WAT    EPW10064   6.932   7.505   2.524  0.2520 -0.3454 -0.1678
 2340WAT      O10065   6.975   2.754   1.272  0.1672  0.4631 -0.2692
 2340WAT     H110066   6.925   2.815   1.309  0.9019 -0.3976  2.3732
 2340WAT     H210067   6.929   2.681   1.283  1.6507 -0.2806  1.8495
 2340WAT    EPW10068   6.961   2.752   1.279  0.2095  0.0677  0.3239
 2341WAT      O10069   3.315   6.661   1.673  0.7311  0.0847  0.4437
 2341WAT     H110070   3.295   6.719   1.735  1.6697 -1.1092  1.9560
 2341WAT     H210071   3.346   6.710   1.608 -1.8959  1.5237  0.1572
 2341WAT    EPW10072   3.316   6.677   1.673  0.3436  0.3236 -0.3160
 2342WAT      O10073   1.797   6.307   6.510 -0.0432  0.3483 -0.8759
 2342WAT     H110074   1.779   6.313   6.595 -2.2078 -0.7471 -1.1991
 2342WAT     H210075   1.874   6.348   6.503  1.4814 -1.6488  1.9843
 2342WAT    EPW10076   1.806   6.314   6.521 -0.0963 -0.0375  0.0729
 2343WAT      O10077   7.250   5.248   3.737  0.1121  0.2729 -0.3812
 2343WAT     H110078   7.177   5.237   3.692 -0.5983  1.2733  0.4634
 2343WAT     H210079   7.232   5.212   3.814 -0.0478  1.7772  0.3176
 2343WAT    EPW10080   7.237   5.241   3.742  0.0439  0.4816 -0.0010
 2344WAT      O10081   2.758   0.313   2.061  0.4709 -0.3721  0.2496
 2344WAT     H110082   2.736   0.372   2.121 -0.8111 -0.4988 -0.0665
 2344WAT     H210083   2.694   0.318   2.002  0.2640 -2.1568  0.2647
 2344WAT    EPW10084   2.746   0.322   2.061 -0.0416 -0.0026  0.0233
 2345WAT      O10085   1.931   5.776   0.742  0.4280  0.1660 -0.5628
 2345WAT     H110086   1.931   5.807   0.823  0.9942  0.1310 -0.5447
 2345WAT     H210087   2.003   5.811   0.707 -0.1921  0.7612 -1.2795
 2345WAT    EPW10088   1.941   5.786   0.749 -0.5032  0.0544 -0.4241
 2346WAT      O10089   5.014   6.948   4.615  0.0201  0.1469  0.6924
 2346WAT     H110090   5.050   6.889   4.562  1.5988 -0.3376  2.1744
 2346WAT     H210091   4.957   6.990   4.565  1.4979 -0.2047 -1.3994
 2346WAT    EPW10092   5.011   6.946   4.600  0.5010 -0.1276 -0.2626
 2347WAT      O10093   7.402   4.487   3.476  0.0460 -0.0406  0.2545
 2347WAT     H110094   7.357   4.419   3.446 -0.1418  0.3949 -0.4634
 2347WAT     H210095   7.485   4.464   3.463  0.0410 -0.6289  1.1183
 2347WAT    EPW10096   7.408   4.473   3.470 -0.4922 -0.5677 -0.3524
 2348WAT      O10097   4.081   0.423   6.545  0.6852 -0.2032 -0.0782
 2348WAT     H110098   4.141   0.395   6.488  1.1790  0.1076  0.2905
 2348WAT     H210099   4.042   0.488   6.503  0.3772 -0.6166 -0.4476
 2348WAT    EPW10100   4.084   0.428   6.530 -0.0967  0.8278  0.0686
 2349WAT      O10101   7.122   4.119   1.504 -0.0353 -0.3810 -0.1439
 2349WAT     H110102   7.085   4.041   1.489 -0.1877 -0.3083 -0.1494
 2349WAT     H210103   7.186   4.101   1.560 -0.1726 -0.4884 -0.0194
 2349WAT    EPW10104   7.126   4.105   1.510 -1.0338 -0.1304 -0.0402
 2350WAT      O10105   5.916   4.647   5.771  0.8342 -0.4067  0.0768
 2350WAT     H110106   5.969   4.578   5.768  0.0763 -1.0135 -2.8123
 2350WAT     H210107   5.839   4.614   5.796  0.8574 -0.2800  0.3197
 2350WAT    EPW10108   5.913   4.632   5.774  0.2967  0.0467  0.8015
 2351WAT      O10109   5.553   1.082   5.192  0.1916 -0.2513  0.4141
 2351WAT     H110110   5.617   1.137   5.215 -0.0546  0.3321 -0.2473
 2351WAT     H210111   5.483   1.133   5.188  0.0878 -0.4512 -0.9173
 2351WAT    EPW10112   5.552   1.098   5.194  0.0027 -0.3755 -0.3980
 2352WAT      O10113   1.192   4.044   4.146 -0.4146  0.5243 -0.2779
 2352WAT     H110114   1.212   4.082   4.071 -1.4677 -2.0442 -2.0329
 2352WAT     H210115   1.266   4.047   4.192  0.6658  1.0116 -1.9650
 2352WAT    EPW10116   1.206   4.050   4.142  0.7223 -0.3640  1.1520
 2353WAT      O10117   2.225   3.408   6.266  0.3727  0.1893  0.0344
 2353WAT     H110118   2.297   3.437   6.305  0.5324  0.3720 -0.3824
 2353WAT     H210119   2.189   3.481   6.233 -0.7011  0.2874  1.3522
 2353WAT    EPW10120   2.230   3.423   6.267 -0.0214  0.4387 -0.1487
 2354WAT      O10121   5.528   6.951   0.814  0.3016 -0.6616  0.0577
 2354WAT     H110122   5.541   6.867   0.793 -1.2362 -1.0882  0.6760
 2354WAT     H210123   5.504   6.947   0.898  2.2516  0.6207  0.7289
 2354WAT    EPW10124   5.527   6.938   0.823  0.1671  0.3639 -0.1541
 2355WAT      O10125   6.157   7.056   3.989  0.4370  0.0254 -0.3048
 2355WAT     H110126   6.135   6.973   3.975  0.1903  0.2183 -1.0621
 2355WAT     H210127   6.115   7.075   4.064 -0.5414 -0.1512 -0.7933
 2355WAT    EPW10128   6.148   7.047   3.998 -0.3814  0.1711  0.2389
 2356WAT      O10129   1.052   6.999   5.704  0.2811 -0.5868 -0.0475
 2356WAT     H110130   1.082   6.917   5.696 -0.8971 -1.0610  0.0969
 2356WAT     H210131   1.021   7.017   5.624  1.0023 -0.0743 -0.2204
 2356WAT    EPW10132   1.052   6.989   5.691 -0.1825  0.3377  0.1863
 2357WAT      O10133   7.234   6.052   4.134  0.2874  0.1886 -0.2428
 2357WAT     H110134   7.171   6.100   4.097  1.0700  1.3768 -0.0688
 2357WAT     H210135   7.297   6.110   4.150  1.3005 -0.9295 -0.1160
 2357WAT    EPW10136   7.234   6.068   4.131 -0.6682  0.2193  0.4214
 2358WAT      O10137   1.227   1.040   7.430  0.2891 -0.1090 -0.0913
 2358WAT     H110138   1.300   1.000   7.406 -0.4539 -2.2712  0.9132
 2358WAT     H210139   1.241   1.060   7.514  0.2717  0.8250 -0.3078
 2358WAT    EPW10140   1.240   1.037   7.439  0.4215  0.2590 -0.5381
 2359WAT      O10141   1.104   6.486   4.520 -0.4357  0.7172  0.1305
 2359WAT     H110142   1.067   6.555   4.560  0.0255 -0.5760  3.0198
 2359WAT     H210143   1.040   6.426   4.520 -0.2443  0.5053 -0.5990
 2359WAT    EPW10144   1.089   6.487   4.526  0.0254 -0.0028  0.3872
 2360WAT      O10145   6.927   5.298   4.334 -0.0824  0.3994  0.0680
 2360WAT     H110146   6.987   5.247   4.370  0.1709  0.7317  0.1226
 2360WAT     H210147   6.859   5.245   4.322  0.3260 -0.0474 -0.2714
 2360WAT    EPW10148   6.926   5.283   4.338 -0.0432 -0.1737 -0.3248
 2361WAT      O10149   3.741   1.730   1.774  0.3249 -0.5089  0.7365
 2361WAT     H110150   3.792   1.660   1.760  1.6767 -0.0891  2.9204
 2361WAT     H210151   3.735   1.733   1.861  0.9175  2.4754  0.7851
 2361WAT    EPW10152   3.748   1.720   1.785 -0.2616 -0.3266  0.3841
 2362WAT      O10153   1.320   7.228   7.175  0.4797  0.2970 -0.0061
 2362WAT     H110154   1.300   7.300   7.221  1.3435 -0.8752  2.3683
 2362WAT     H210155   1.316   7.255   7.092 -4.3486  1.8390  0.3809
 2362WAT    EPW10156   1.316   7.243   7.169  0.3660  1.1323  0.8219
 2363WAT      O10157   1.504   4.110   1.285  0.3481  0.2274  0.4614
 2363WAT     H110158   1.558   4.062   1.334  0.8083  0.9957  0.7289
 2363WAT     H210159   1.558   4.164   1.242 -0.1794  0.7774  0.4732
 2363WAT    EPW10160   1.520   4.111   1.286  0.0280  0.4045  0.5562
 2364WAT      O10161   4.009   3.409   5.121  0.2993 -0.0520 -0.2849
 2364WAT     H110162   3.967   3.484   5.133  0.3747  0.0754 -0.7766
 2364WAT     H210163   3.947   3.355   5.092  0.7339  0.5768 -2.6079
 2364WAT    EPW10164   3.994   3.412   5.118 -0.5567 -0.8289  0.1562
 2365WAT      O10165   3.583   5.908   3.429 -0.4219  0.0275 -0.4312
 2365WAT     H110166   3.527   5.859   3.474 -0.3758  1.7015  1.6112
 2365WAT     H210167   3.618   5.960   3.490  1.8785  0.4189 -1.9614
 2365WAT    EPW10168   3.580   5.909   3.445  0.5223  0.4060 -0.3265
 2366WAT      O10169   5.869   7.254   0.482  0.6281  0.4980 -0.1447
 2366WAT     H110170   5.933   7.275   0.537 -0.8298  3.5781  0.5545
 2366WAT     H210171   5.812   7.212   0.533  2.1777 -2.8852 -0.9064
 2366WAT    EPW10172   5.870   7.251   0.498 -0.1975 -0.2825 -0.2661
 2367WAT      O10173   3.404   2.449   1.833  0.1321 -0.1004  0.8367
 2367WAT     H110174   3.421   2.368   1.807  1.0869  0.3844 -0.1127
 2367WAT     H210175   3.425   2.498   1.764 -2.6534  0.8076  0.5265
 2367WAT    EPW10176   3.410   2.444   1.819  0.8697  0.3157 -0.3215
 2368WAT      O10177   1.490   2.737   5.711 -0.3547 -0.1558 -0.2701
 2368WAT     H110178   1.524   2.809   5.746 -1.0894  0.3503 -0.5655
 2368WAT     H210179   1.479   2.758   5.627  1.3792 -1.3452 -0.8601
 2368WAT    EPW10180   1.493   2.750   5.703 -0.3588 -0.1849 -0.2018
 2369WAT      O10181   7.335   0.133   3.284 -0.0238  0.0765  0.0136
 2369WAT     H110182   7.381   0.169   3.219 -0.0387 -0.0742 -0.0802
 2369WAT     H210183   7.366   0.052   3.289  1.6179  0.7225  1.7094
 2369WAT    EPW10184   7.347   0.126   3.275 -0.0381 -0.1952 -0.0539
 2370WAT      O10185   7.151   7.621   4.667 -0.3576 -0.3433  0.0289
 2370WAT     H110186   7.211   7.585   4.720  1.2621  0.9908 -0.8210
 2370WAT     H210187   7.109   7.552   4.635  0.2515 -1.2991  1.1860
 2370WAT    EPW10188   7.154   7.606   4.670 -0.2173 -0.6723  0.1687
 2371WAT      O10189   7.341   4.587   7.051  0.0839 -0.5151 -0.5627
 2371WAT     H110190   7.269   4.570   7.097 -1.1839 -1.1021 -2.6374
 2371WAT     H210191   7.359   4.511   7.012  1.8458 -0.3682 -0.1501
 2371WAT    EPW10192   7.333   4.573   7.052 -0.4729 -0.0498 -0.1129
 2372WAT      O10193   2.931   1.859   0.168 -0.8106 -0.5440 -0.3853
 2372WAT     H110194   2.869   1.805   0.197 -0.6225 -0.2572  0.5754
 2372WAT     H210195   2.950   1.908   0.237  1.2831 -1.3482 -0.3193
 2372WAT    EPW10196   2.924   1.858   0.182 -0.2881  0.6502 -0.0755
 2373WAT      O10197   7.407   6.773   3.629  0.1626 -0.2727 -0.5867
 2373WAT     H110198   7.423   6.847   3.584  0.0789 -0.5020 -1.0034
 2373WAT     H210199   7.466   6.718   3.597  0.8726 -0.1118  0.4268
 2373WAT    EPW10200   7.418   6.776   3.617 -0.3566 -0.2100  0.1029
 2374WAT      O10201   4.722   0.367   6.347 -0.9500  0.4517 -0.3791
 2374WAT     H110202   4.691   0.431   6.398 -1.3908  0.8586 -1.1501
 2374WAT     H210203   4.665   0.363   6.282  0.6479  1.2922 -1.9013
 2374WAT    EPW10204   4.709   0.376   6.345 -0.1388  0.4663 -0.1931
 2375WAT      O10205   4.376   5.026   0.642 -0.4706 -0.1033 -0.5494
 2375WAT     H110206   4.451   4.984   0.656  1.3362  2.5926 -1.3302
 2375WAT     H210207   4.315   4.966   0.660  1.8197 -2.1473  1.0711
 2375WAT    EPW10208   4.378   5.011   0.647  0.3393  0.1742  0.3364
 2376WAT      O10209   2.298   6.273   5.906  0.6176 -0.0130 -0.1497
 2376WAT     H110210   2.345   6.209   5.868  0.8743  0.4207 -0.5828
 2376WAT     H210211   2.314   6.342   5.855  2.3961  1.0567  1.7326
 2376WAT    EPW10212   2.307   6.274   5.893  0.4539  0.1297  0.5818
 2377WAT      O10213   5.790   5.850   3.366  0.0783  0.0907  0.1464
 2377WAT     H110214   5.747   5.906   3.315 -0.2526 -0.9771 -0.8016
 2377WAT     H210215   5.791   5.776   3.319 -1.3262 -1.3240  2.1428
 2377WAT    EPW10216   5.784   5.847   3.352 -0.4189 -0.0194 -0.3906
 2378WAT      O10217   7.398   3.382   0.335 -0.7323  0.6795  0.3492
 2378WAT     H110218   7.478   3.351   0.353  0.1050  2.4786 -0.0594
 2378WAT     H210219   7.345   3.320   0.366  0.8018 -0.2982  1.1636
 2378WAT    EPW10220   7.402   3.368   0.342 -0.3849  0.0126  0.4045
 2379WAT      O10221   3.946   5.575   0.722 -0.7879  0.4115 -0.4666
 2379WAT     H110222   3.989   5.513   0.765 -0.5198 -0.2714 -1.6629
 2379WAT     H210223   3.963   5.647   0.768 -2.0992 -0.5387  1.6654
 2379WAT    EPW10224   3.955   5.577   0.735 -0.1297 -0.1823  0.5702
 2380WAT      O10225   0.165   4.630   5.997  0.0730  0.1152  0.1055
 2380WAT     H110226   0.105   4.572   5.968 -0.4462  0.8671 -0.3607
 2380WAT     H210227   0.127   4.666   6.066  0.1351  0.3427  0.0213
 2380WAT    EPW10228   0.150   4.627   6.003  0.0928 -0.3498  0.3924
 2381WAT      O10229   2.259   6.880   0.075 -0.2252 -0.5715 -0.6239
 2381WAT     H110230   2.230   6.953   0.038  1.2162  0.6100  0.4190
 2381WAT     H210231   2.187   6.836   0.095 -1.4093  2.1574  1.8227
 2381WAT    EPW10232   2.244   6.884   0.073  0.1716 -0.2389 -0.4593
 2382WAT      O10233   3.702   0.090   3.034 -0.1230  0.1562  0.9922
 2382WAT     H110234   3.709   0.008   3.005 -0.4816  0.8602 -1.2324
 2382WAT     H210235   3.779   0.126   3.015 -0.6683  0.8751  0.0708
 2382WAT    EPW10236   3.714   0.083   3.027 -0.0399 -0.0712 -0.5276
 2383WAT      O10237   6.829   0.636   3.655 -0.1303 -0.1136 -0.5059
 2383WAT     H110238   6.878   0.585   3.706 -1.8352  0.6068  2.0839
 2383WAT     H210239   6.782   0.580   3.608  1.3957 -0.8134 -1.2438
 2383WAT    EPW10240   6.829   0.620   3.656 -0.5601 -0.4084  0.4265
 2384WAT      O10241   7.504   0.122   1.568  0.2173  0.2832  0.0368
 2384WAT     H110242   7.504   0.055   1.624 -2.9944  0.6300  0.6276
 2384WAT     H210243   7.511   0.083   1.490 -2.1187 -0.9035  0.3327
 2384WAT    EPW10244   7.505   0.106   1.565 -0.1101 -0.4274 -0.1603
 2385WAT      O10245   3.978   6.377   5.922  0.0853  0.0279 -0.3307
 2385WAT     H110246   4.030   6.322   5.965 -0.4764 -2.1169 -2.2103
 2385WAT     H210247   4.027   6.403   5.855 -0.8191 -1.1624 -1.5064
 2385WAT    EPW10248   3.993   6.372   5.919 -0.0198  0.3303  0.1133
 2386WAT      O10249   7.050   4.532   4.242  0.8152  0.4626 -0.6496
 2386WAT     H110250   7.125   4.522   4.199  1.6792  2.3284  0.2968
 2386WAT     H210251   7.055   4.614   4.273 -0.1054 -0.4501  2.2509
 2386WAT    EPW10252   7.062   4.543   4.240  0.3411 -0.1681  0.1344
 2387WAT      O10253   4.784   2.237   3.675  0.0854 -0.1333  0.2008
 2387WAT     H110254   4.801   2.322   3.676  1.3411 -0.3648  0.6884
 2387WAT     H210255   4.794   2.215   3.591 -0.4526  0.2321  0.0375
 2387WAT    EPW10256   4.788   2.246   3.662  0.2255  0.0950 -0.0934
 2388WAT      O10257   7.373   3.603   5.505 -0.2614 -0.2538 -0.8313
 2388WAT     H110258   7.380   3.624   5.420  0.7439 -0.0519 -0.7103
 2388WAT     H210259   7.408   3.671   5.546 -0.3229 -0.5573 -0.2649
 2388WAT    EPW10260   7.379   3.616   5.498  0.0922  0.1277  0.0322
 2389WAT      O10261   3.502   2.364   0.449  0.2746  0.3582  0.0831
 2389WAT     H110262   3.432   2.366   0.501  0.7167  0.5123  0.6863
 2389WAT     H210263   3.490   2.291   0.402 -0.9681  1.1137 -0.8113
 2389WAT    EPW10264   3.490   2.353   0.450  0.0346  0.5192 -0.4943
 2390WAT      O10265   1.156   4.211   3.901 -0.5654 -0.3537 -0.1617
 2390WAT     H110266   1.077   4.242   3.881 -0.2964 -1.0645 -2.5664
 2390WAT     H210267   1.208   4.280   3.889 -0.6855 -0.1501  0.4546
 2390WAT    EPW10268   1.152   4.226   3.896 -0.0637 -0.0424  0.5078
 2391WAT      O10269   6.151   1.284   7.165  0.5513  0.0068  0.0186
 2391WAT     H110270   6.237   1.295   7.154  0.6811 -0.8755  0.0777
 2391WAT     H210271   6.129   1.229   7.102 -0.0738  0.6067 -0.2989
 2391WAT    EPW10272   6.161   1.278   7.154  0.5185 -0.8819 -0.1549
 2392WAT      O10273   6.558   6.980   4.752  0.5188  0.5523  0.5323
 2392WAT     H110274   6.558   6.909   4.804  0.2557 -1.3703 -1.9016
 2392WAT     H210275   6.642   7.004   4.752  0.4791  0.7852  2.0297
 2392WAT    EPW10276   6.571   6.973   4.760 -0.0846 -0.3363  0.4730
 2393WAT      O10277   1.658   4.396   6.650  0.1037 -0.5255  0.3051
 2393WAT     H110278   1.744   4.409   6.655  0.2260 -1.4339  0.9731
 2393WAT     H210279   1.650   4.309   6.659 -0.8444 -0.5241 -0.3534
 2393WAT    EPW10280   1.669   4.385   6.652 -0.2771  0.1500 -0.6875
 2394WAT      O10281   1.881   1.704   2.868  0.2743  0.4142 -0.1193
 2394WAT     H110282   1.819   1.747   2.911  0.2599  0.7027 -0.4254
 2394WAT     H210283   1.952   1.717   2.917  0.2929  0.8806 -0.2604
 2394WAT    EPW10284   1.883   1.713   2.881  0.2137  0.1261  0.5628
 2395WAT      O10285   7.365   4.099   0.577  0.5543 -0.1337  0.0648
 2395WAT     H110286   7.435   4.057   0.606 -0.2054 -3.0003 -1.7925
 2395WAT     H210287   7.367   4.085   0.490 -2.6673 -1.1417  0.0088
 2395WAT    EPW10288   7.376   4.090   0.568  0.3098  0.0796  0.2050
 2396WAT      O10289   4.655   4.844   4.312  0.8129 -0.1396 -0.2379
 2396WAT     H110290   4.596   4.907   4.305  0.6030 -0.3389 -0.2673
 2396WAT     H210291   4.615   4.774   4.278  1.6844  0.1164 -1.9106
 2396WAT    EPW10292   4.641   4.843   4.306 -0.3824 -0.0339 -0.0425
 2397WAT      O10293   5.152   4.384   3.011 -0.5132  0.5492  0.0647
 2397WAT     H110294   5.236   4.381   3.034 -0.6788  1.4678  0.8296
 2397WAT     H210295   5.112   4.343   3.076 -0.5679 -0.9952 -0.8977
 2397WAT    EPW10296   5.159   4.377   3.024 -0.2316 -0.2664 -0.1833
 2398WAT      O10297   7.190   0.980   1.375 -0.2674 -0.6217 -0.4277
 2398WAT     H110298   7.226   1.054   1.403 -1.2615 -0.4497  0.4571
 2398WAT     H210299   7.105   0.993   1.387 -0.4531 -1.9641 -0.1117
 2398WAT    EPW10300   7.183   0.993   1.381 -0.2602 -1.2753  0.1376
 2399WAT      O10301   5.591   5.958   3.635 -0.4146 -0.4009  0.0229
 2399WAT     H110302   5.574   5.913   3.562  1.6725 -0.3524 -0.5599
 2399WAT     H210303   5.518   6.004   3.648 -1.3153 -1.3752 -1.2993
 2399WAT    EPW10304   5.577   5.958   3.626  0.6107 -0.0193  0.4268
 2400WAT      O10305   4.556   3.911   7.178 -0.2520  0.1020 -0.1963
 2400WAT     H110306   4.608   3.967   7.220 -1.0111  1.2688 -0.7619
 2400WAT     H210307   4.555   3.942   7.096 -2.6403  0.7455  0.0151
 2400WAT    EPW10308   4.564   3.924   7.172 -0.0050 -0.2589 -0.1864
 2401WAT      O10309   4.643   0.871   1.711  0.1027 -0.0889  0.6159
 2401WAT     H110310   4.716   0.859   1.756 -0.8305  1.1028  2.5681
 2401WAT     H210311   4.666   0.929   1.650  1.1901 -1.0872  0.0474
 2401WAT    EPW10312   4.657   0.878   1.709  0.3366 -0.3018  0.0604
 2402WAT      O10313   0.284   7.191   4.384  0.4091  0.1603  0.0104
 2402WAT     H110314   0.315   7.185   4.466 -0.4710  4.0497  0.8045
 2402WAT     H210315   0.298   7.274   4.363 -3.1338  0.3713 -2.2131
 2402WAT    EPW10316   0.291   7.202   4.393  0.1959 -0.3041  0.1782
 2403WAT      O10317   6.007   3.291   2.535  0.1449  0.4239  0.2006
 2403WAT     H110318   6.074   3.246   2.504  0.1558  0.7752 -0.2824
 2403WAT     H210319   5.955   3.302   2.466 -2.2789 -3.0433  1.2028
 2403WAT    EPW10320   6.009   3.286   2.521 -0.5224 -0.3154  0.0262
 2404WAT      O10321   0.131   3.135   4.995  0.3287  0.0836 -0.2446
 2404WAT     H110322   0.140   3.186   5.065 -1.3782  0.7262 -0.4285
 2404WAT     H210323   0.153   3.056   5.024 -0.6646  0.2766  1.1566
 2404WAT    EPW10324   0.136   3.131   5.009  0.3114 -0.3423 -0.4322
 2405WAT      O10325   6.603   3.114   0.897 -0.3127  0.1335  0.4483
 2405WAT     H110326   6.656   3.066   0.948  0.8934  2.6636  1.7785
 2405WAT     H210327   6.597   3.189   0.940 -2.4817  1.0491 -1.2942
 2405WAT    EPW10328   6.610   3.118   0.911 -0.4009 -0.1346  0.8360
 2406WAT      O10329   3.337   2.470   5.311 -0.0414  0.6147 -1.0547
 2406WAT     H110330   3.274   2.445   5.366  0.7359  0.4037 -0.2406
 2406WAT     H210331   3.334   2.410   5.248  1.0707 -0.9956  0.3225
 2406WAT    EPW10332   3.327   2.458   5.310  0.3793 -0.3295  0.1627
 2407WAT      O10333   0.014   3.274   3.022 -0.2086 -0.4136  0.1050
 2407WAT     H110334   0.081   3.325   3.045 -0.2731 -1.1291  2.1104
 2407WAT     H210335  -0.028   3.261   3.098 -2.4478 -0.2584 -1.0282
 2407WAT    EPW10336   0.018   3.280   3.037  0.6213  0.2770  0.0171
 2408WAT      O10337   4.683   1.210   3.662 -1.1790 -0.4544  0.3653
 2408WAT     H110338   4.748   1.152   3.656 -0.7291 -0.2449  2.4008
 2408WAT     H210339   4.615   1.168   3.625  0.6235  0.5421 -4.9125
 2408WAT    EPW10340   4.682   1.195   3.656  0.0135 -0.0272 -0.0184
 2409WAT      O10341   1.725   3.696   3.357  0.0063 -0.5471  0.5649
 2409WAT     H110342   1.730   3.626   3.408  0.0746  1.0070  2.8532
 2409WAT     H210343   1.642   3.721   3.363  0.4938  0.9343  1.8338
 2409WAT    EPW10344   1.713   3.690   3.365  0.3880  0.3323  0.1343
 2410WAT      O10345   1.209   3.629   3.242 -0.0049 -0.1498  0.2441
 2410WAT     H110346   1.209   3.716   3.234  1.4374 -0.2109 -0.7361
 2410WAT     H210347   1.173   3.616   3.321  0.6755  1.3849  0.8447
 2410WAT    EPW10348   1.203   3.640   3.253  0.5059 -0.2822 -0.0839
 2411WAT      O10349   2.910   5.324   2.436  0.0583  0.4843  0.4023
 2411WAT     H110350   2.995   5.338   2.422  0.1142  0.3036  0.5530
 2411WAT     H210351   2.896   5.359   2.515  0.1168  0.0262  0.6187
 2411WAT    EPW10352   2.921   5.332   2.446 -0.2376 -0.3331 -0.3574
 2412WAT      O10353   3.378   5.543   4.651  0.2389 -0.3866 -0.0156
 2412WAT     H110354   3.305   5.518   4.691 -0.9038  1.3565 -0.8931
 2412WAT     H210355   3.441   5.513   4.703 -1.0855 -1.5844  0.9856
 2412WAT    EPW10356   3.377   5.535   4.664  0.4992  0.3740 -0.0751
 2413WAT      O10357   6.815   2.343   4.321  0.0316 -0.1243  0.0650
 2413WAT     H110358   6.825   2.395   4.252  1.6158  0.8571  0.9667
 2413WAT     H210359   6.819   2.398   4.388 -2.1702 -0.9583  0.9703
 2413WAT    EPW10360   6.817   2.359   4.321 -0.1199  0.1937  0.5138
 2414WAT      O10361   6.156   1.624   3.264 -0.0216  0.2657  0.2531
 2414WAT     H110362   6.186   1.693   3.308 -1.0239  0.6956  0.2861
 2414WAT     H210363   6.083   1.602   3.307 -0.5384  0.1442 -0.6560
 2414WAT    EPW10364   6.150   1.631   3.277  0.4458  0.3766  0.2783
 2415WAT      O10365   1.169   4.180   0.371  0.2905 -0.4358 -0.3302
 2415WAT     H110366   1.200   4.145   0.297 -0.4481  0.7354 -1.2284
 2415WAT     H210367   1.087   4.203   0.349  0.9211  2.4182 -0.0237
 2415WAT    EPW10368   1.161   4.178   0.357 -0.6721  0.9007  0.3439
 2416WAT      O10369   0.102   0.396   3.245  0.0950  0.0847  0.3811
 2416WAT     H110370   0.178   0.412   3.285  0.4556 -0.2174 -0.1675
 2416WAT     H210371   0.107   0.445   3.173 -0.5539  0.6358  0.7035
 2416WAT    EPW10372   0.114   0.405   3.240 -0.3696  0.5026 -0.2239
 2417WAT      O10373   1.565   5.497   6.850  1.2141 -0.0282 -0.0456
 2417WAT     H110374   1.548   5.583   6.855  1.6610  0.0231  0.6561
 2417WAT     H210375   1.616   5.491   6.780  0.4705  0.1569 -0.6230
 2417WAT    EPW10376   1.570   5.509   6.840  0.1741 -0.4186 -0.2714
 2418WAT      O10377   5.917   2.714   1.476  0.5661 -0.5445 -0.5515
 2418WAT     H110378   5.836   2.681   1.478  0.6474 -0.7480  0.7367
 2418WAT     H210379   5.905   2.798   1.458 -0.0942 -0.2282  1.2057
 2418WAT    EPW10380   5.903   2.721   1.474  0.2746 -0.0828  0.1269
 2419WAT      O10381   0.946   3.015   5.174 -0.2833 -0.3952  0.6019
 2419WAT     H110382   1.023   2.993   5.207  0.0881  1.8038  1.3560
 2419WAT     H210383   0.907   2.939   5.160  1.5783 -1.5239  1.2716
 2419WAT    EPW10384   0.951   3.001   5.177 -0.5633  1.1572 -0.0533
 2420WAT      O10385   0.785   3.348   3.352 -0.1523 -0.1044 -0.3138
 2420WAT     H110386   0.807   3.274   3.393 -0.0822 -0.4818 -1.0030
 2420WAT     H210387   0.857   3.396   3.357 -0.4746  0.2956  0.9080
 2420WAT    EPW10388   0.799   3.344   3.359  0.3866 -0.2103 -0.6159
 2421WAT      O10389   6.048   6.837   1.461  0.0201  0.0902  0.3017
 2421WAT     H110390   6.020   6.754   1.464  0.9193 -0.2365  0.0425
 2421WAT     H210391   6.112   6.835   1.402 -0.1304  1.0303  0.0994
 2421WAT    EPW10392   6.053   6.824   1.453 -0.0635 -0.1648  0.4585
 2422WAT      O10393   3.982   4.999   5.766  0.0242 -0.0965  0.3188
 2422WAT     H110394   3.976   5.086   5.759 -0.8359 -0.2607 -2.2427
 2422WAT     H210395   4.045   4.978   5.709 -0.3193 -1.1915  0.3151
 2422WAT    EPW10396   3.990   5.009   5.756 -0.1049  0.2337  0.2540
 2423WAT      O10397   4.954   6.570   4.675 -0.0656  0.0398 -0.0804
 2423WAT     H110398   4.965   6.616   4.601 -0.7416 -0.3824 -0.4494
 2423WAT     H210399   4.929   6.631   4.732 -1.9729  0.0242 -0.8174
 2423WAT    EPW10400   4.952   6.586   4.672 -0.2893 -0.7096 -0.1730
 2424WAT      O10401   4.943   6.069   2.695 -0.4249  0.1018 -0.4771
 2424WAT     H110402   4.980   6.050   2.619 -0.9671  0.3945 -0.8243
 2424WAT     H210403   5.010   6.079   2.749  0.0373  1.1699 -1.2181
 2424WAT    EPW10404   4.958   6.068   2.692  0.3136  0.3500 -0.3106
 2425WAT      O10405   2.028   7.353   6.946  0.2963 -0.2994  0.0106
 2425WAT     H110406   2.101   7.320   6.912 -0.8034 -0.8167 -2.0215
 2425WAT     H210407   2.027   7.435   6.915 -0.1810 -0.4397 -0.3647
 2425WAT    EPW10408   2.039   7.360   6.936 -0.0323  0.0873 -0.1940
 2426WAT      O10409   7.620   2.407   0.135  0.0830  0.2056  0.6121
 2426WAT     H110410   7.625   2.453   0.061  1.9371  0.5278  0.9043
 2426WAT     H210411   7.642   2.326   0.110 -0.0514  0.1437  0.6883
 2426WAT    EPW10412   7.624   2.402   0.120 -0.0826  0.8133  0.4145
 2427WAT      O10413   2.165   3.017   4.335 -0.7163 -0.3820  0.3487
 2427WAT     H110414   2.245   3.049   4.321 -1.1734  0.5453 -0.2705
 2427WAT     H210415   2.131   3.012   4.255 -1.3499 -0.5596  0.6240
 2427WAT    EPW10416   2.172   3.021   4.321  0.2914 -0.5676 -0.2967
 2428WAT      O10417   4.396   6.617   4.475  0.1190 -0.0833 -0.1948
 2428WAT     H110418   4.434   6.679   4.522 -0.0808 -0.7198  0.8562
 2428WAT     H210419   4.315   6.647   4.463  0.0557 -0.0824  0.2125
 2428WAT    EPW10420   4.389   6.630   4.480 -0.3889  0.1485  0.5750
 2429WAT      O10421   5.683   3.247   7.403  0.7253  0.1522  0.5135
 2429WAT     H110422   5.668   3.201   7.331 -1.6036 -0.1495  1.1319
 2429WAT     H210423   5.653   3.327   7.384  2.6704  0.8761  0.2344
 2429WAT    EPW10424   5.676   3.252   7.390  0.4723  0.4127  0.4938
 2430WAT      O10425   2.946   2.978   4.591  0.3386  0.0417 -0.1520
 2430WAT     H110426   3.028   2.983   4.561  0.0535 -0.7671 -1.1471
 2430WAT     H210427   2.955   2.980   4.678  1.5168 -1.0833 -0.2172
 2430WAT    EPW10428   2.959   2.979   4.599 -0.6215 -0.4155 -0.3370
 2431WAT      O10429   6.101   7.543   0.603 -0.4050 -0.4615  0.2654
 2431WAT     H110430   6.169   7.597   0.592 -0.0397 -0.8688  0.4992
 2431WAT     H210431   6.136   7.464   0.593 -0.6508 -0.7237  1.3537
 2431WAT    EPW10432   6.116   7.539   0.600  0.0413 -0.1713  0.1212
 2432WAT      O10433   1.078   2.046   3.466  0.2319 -0.2997  0.5998
 2432WAT     H110434   1.136   2.109   3.452 -0.0960  1.1332  4.5188
 2432WAT     H210435   1.123   1.984   3.506 -0.1760 -0.9532  0.0661
 2432WAT    EPW10436   1.093   2.046   3.469  0.4740  0.0519 -0.0327
 2433WAT      O10437   0.751   7.555   2.840  0.6087 -0.7196  0.4214
 2433WAT     H110438   0.677   7.509   2.844 -0.4012  0.4291 -2.2017
 2433WAT     H210439   0.812   7.496   2.821 -0.3646 -1.2620 -1.2357
 2433WAT    EPW10440   0.749   7.540   2.837 -0.1941 -0.5151 -0.1909
 2434WAT      O10441   0.417   6.268   4.704 -0.3356 -0.0060 -0.0057
 2434WAT     H110442   0.493   6.307   4.722 -0.6421  1.0333 -0.8470
 2434WAT     H210443   0.413   6.202   4.761  0.6988  0.5687  0.7532
 2434WAT    EPW10444   0.428   6.264   4.715  0.4897  0.1123  0.7249
 2435WAT      O10445   6.257   2.056   1.392  0.7089  0.2410  0.6474
 2435WAT     H110446   6.212   2.038   1.319  1.7752 -0.3882  0.1221
 2435WAT     H210447   6.260   2.143   1.392  0.3495  0.2625  0.1586
 2435WAT    EPW10448   6.251   2.066   1.381  0.2158 -0.2729  0.5473
 2436WAT      O10449   1.915   1.233   0.331  0.4845 -0.5583 -0.1891
 2436WAT     H110450   1.992   1.206   0.300  1.2333  0.5065  0.6514
 2436WAT     H210451   1.931   1.246   0.416 -0.3171  0.6831 -0.2028
 2436WAT    EPW10452   1.929   1.231   0.339  0.5529  0.3207  0.8257
 2437WAT      O10453   0.231   0.535   6.282 -0.0928  0.3875  0.3321
 2437WAT     H110454   0.289   0.519   6.346  0.4530 -0.1462 -0.2780
 2437WAT     H210455   0.199   0.613   6.302  1.7416  1.2672  0.0330
 2437WAT    EPW10456   0.235   0.544   6.295 -0.3603 -0.3723  0.0995
 2438WAT      O10457   0.150   1.370   2.706 -0.3316  0.3990 -0.0168
 2438WAT     H110458   0.217   1.413   2.670 -0.3334 -0.4997 -1.1308
 2438WAT     H210459   0.105   1.433   2.747  1.3619  0.9621  1.0568
 2438WAT    EPW10460   0.153   1.386   2.707  0.1092  0.1409  0.4163
 2439WAT      O10461   4.983   5.517   0.428  0.6658  0.3076  0.4642
 2439WAT     H110462   4.923   5.560   0.475 -0.0797  1.7483 -1.6197
 2439WAT     H210463   4.936   5.462   0.380  1.1617  0.3138 -0.0385
 2439WAT    EPW10464   4.967   5.515   0.428 -0.1561 -0.6963 -0.5564
 2440WAT      O10465   1.910   0.432   4.809  0.4743 -0.1961  0.3347
 2440WAT     H110466   1.846   0.399   4.759 -1.8482  1.3425  2.1030
 2440WAT     H210467   1.935   0.503   4.765  0.4869 -0.4124 -0.0148
 2440WAT    EPW10468   1.904   0.438   4.795  0.3034  0.3773  0.3626
 2441WAT      O10469   5.963   6.443   2.186 -0.6946 -0.5207  0.0575
 2441WAT     H110470   6.006   6.507   2.144 -1.8831 -0.2126 -0.7352
 2441WAT     H210471   5.999   6.370   2.155 -1.4598 -0.2918 -1.4464
 2441WAT    EPW10472   5.975   6.442   2.175 -0.5666 -0.6389  0.0315
 2442WAT      O10473   3.028   1.863   2.556  0.0351 -0.2754  0.3367
 2442WAT     H110474   2.947   1.860   2.523  0.0699 -0.6564  0.2875
 2442WAT     H210475   3.028   1.799   2.615 -0.8882  1.9717  3.0108
 2442WAT    EPW10476   3.016   1.853   2.560 -0.3364 -0.0299 -0.4952
 2443WAT      O10477   1.647   1.804   2.974 -0.2859 -0.7275 -0.4950
 2443WAT     H110478   1.601   1.736   3.003  0.2212 -0.7967  0.1757
 2443WAT     H210479   1.589   1.850   2.928 -1.4453 -0.0847  1.4672
 2443WAT    EPW10480   1.631   1.801   2.972 -0.0980  0.1646  0.0018
 2444WAT      O10481   3.016   0.282   3.462 -0.0663 -0.8523 -0.0527
 2444WAT     H110482   3.085   0.233   3.486 -0.7788 -1.7213  0.2645
 2444WAT     H210483   2.965   0.227   3.419 -0.5494 -0.1956 -0.3394
 2444WAT    EPW10484   3.019   0.267   3.460 -0.0656  0.2725  0.2479
 2445WAT      O10485   6.021   5.271   7.264 -0.1602  0.2756  0.1790
 2445WAT     H110486   5.970   5.312   7.206 -0.6080  0.3753  0.6375
 2445WAT     H210487   6.093   5.252   7.218  0.3100  2.0759  0.0944
 2445WAT    EPW10488   6.024   5.274   7.248  0.0268 -0.2477 -0.4986
 2446WAT      O10489   0.753   5.678   4.444 -0.2058 -0.0137  0.1126
 2446WAT     H110490   0.785   5.671   4.525 -0.1921 -2.1483 -0.0113
 2446WAT     H210491   0.712   5.602   4.432 -2.5803  1.3021 -0.9211
 2446WAT    EPW10492   0.752   5.666   4.454  0.3532 -0.3671  0.0292
 2447WAT      O10493   1.063   3.656   5.104  0.0883 -0.6809 -0.1304
 2447WAT     H110494   1.146   3.673   5.082 -0.0007  0.8198  0.5443
 2447WAT     H210495   1.060   3.675   5.189 -1.9065  3.8459 -0.9130
 2447WAT    EPW10496   1.075   3.661   5.114 -0.3595 -0.7274 -0.1830
 2448WAT      O10497   7.172   1.329   6.993  0.6900 -0.3842 -0.2835
 2448WAT     H110498   7.139   1.404   7.022  2.1204 -0.6244  2.2805
 2448WAT     H210499   7.254   1.350   6.971  0.5569 -0.8749 -1.3231
 2448WAT    EPW10500   7.179   1.343   6.994 -0.4984 -0.7979 -0.2234
 2449WAT      O10501   3.606   0.143   2.728  0.6254  0.2649 -0.6848
 2449WAT     H110502   3.628   0.079   2.673  2.4538  0.4239 -0.2052
 2449WAT     H210503   3.660   0.132   2.795 -0.3528  1.1515  0.2883
 2449WAT    EPW10504   3.617   0.132   2.730 -0.0011 -0.0073 -0.1046
 2450WAT      O10505   7.376   4.884   0.242 -0.1771 -0.3066 -0.2675
 2450WAT     H110506   7.325   4.881   0.171  0.1560  0.0463 -0.5247
 2450WAT     H210507   7.448   4.842   0.218 -0.7636 -1.8041  0.4586
 2450WAT    EPW10508   7.379   4.877   0.228 -0.0170  0.3798  0.2599
 2451WAT      O10509   5.453   6.050   1.503 -0.0260  0.4746 -0.0286
 2451WAT     H110510   5.489   5.982   1.543  0.6246  0.3875 -0.7488
 2451WAT     H210511   5.435   6.020   1.423  1.2880  1.4393 -0.7323
 2451WAT    EPW10512   5.456   6.035   1.497 -0.6225 -0.1550  0.4652
 2452WAT      O10513   4.625   5.949   2.020 -0.1205 -0.0477  0.0075
 2452WAT     H110514   4.581   5.966   1.947 -1.5470 -2.2608  0.2463
 2452WAT     H210515   4.569   5.901   2.067  1.2254  0.2083  1.9857
 2452WAT    EPW10516   4.610   5.944   2.016 -0.1696  0.6280 -0.1792
 2453WAT      O10517   4.922   3.561   1.070 -0.3116 -0.0887 -0.1781
 2453WAT     H110518   4.851   3.548   1.119 -0.4162 -1.2184 -0.5958
 2453WAT     H210519   4.987   3.535   1.122 -0.2702  0.1902 -0.0865
 2453WAT    EPW10520   4.922   3.555   1.085  0.5671  0.0173  0.4348
 2454WAT      O10521   6.937   1.247   3.957  0.0155 -0.1248 -0.3442
 2454WAT     H110522   7.000   1.306   3.941 -0.2316  0.2852  0.1512
 2454WAT     H210523   6.974   1.171   3.936  0.1380  0.2467 -1.6225
 2454WAT    EPW10524   6.951   1.245   3.951  0.3102  0.2966 -0.2817
 2455WAT      O10525   5.651   0.970   4.918  0.3657  0.1348  0.6102
 2455WAT     H110526   5.585   1.014   4.953 -0.2051  0.2144 -0.4949
 2455WAT     H210527   5.718   0.986   4.971  0.1635  2.2747  0.2849
 2455WAT    EPW10528   5.651   0.979   4.931  0.0147 -0.1155  0.2296
 2456WAT      O10529   0.005   4.682   4.034  0.1159  0.1598 -0.6071
 2456WAT     H110530   0.077   4.660   3.990  0.5660 -1.0069  0.6290
 2456WAT     H210531  -0.051   4.617   4.017 -0.0945  0.2647 -0.3341
 2456WAT    EPW10532   0.007   4.669   4.025  0.2746 -0.2338 -0.0815
 2457WAT      O10533   6.027   4.933   2.730 -0.2802 -0.1699  0.1426
 2457WAT     H110534   5.969   4.996   2.709 -0.7285 -0.7536 -0.4067
 2457WAT     H210535   6.083   4.974   2.783 -0.0746  0.9268 -0.8650
 2457WAT    EPW10536   6.027   4.949   2.735 -0.4937  0.0005  0.0530
 2458WAT      O10537   1.130   1.105   6.514 -0.1782  0.0609  0.1771
 2458WAT     H110538   1.118   1.019   6.521  0.8602 -0.0436  0.8990
 2458WAT     H210539   1.198   1.121   6.567 -0.8661  1.4510  0.7029
 2458WAT    EPW10540   1.139   1.094   6.523  0.3084  0.2267 -0.2658
 2459WAT      O10541   3.399   5.813   0.952  0.1022 -0.1093  0.0091
 2459WAT     H110542   3.456   5.747   0.957  0.3706  0.2276  2.5278
 2459WAT     H210543   3.449   5.881   0.928  0.2425 -0.3508 -0.3915
 2459WAT    EPW10544   3.415   5.813   0.949  0.1714  0.0363  0.4178
 2460WAT      O10545   6.265   1.906   3.310  0.2990 -0.3449  0.0890
 2460WAT     H110546   6.344   1.919   3.345 -0.5402  0.3344  1.8454
 2460WAT     H210547   6.277   1.923   3.225  1.7887  0.7914  0.4861
 2460WAT    EPW10548   6.279   1.910   3.302  0.3166 -0.3262  0.2255
 2461WAT      O10549   4.428   1.973   2.434 -0.5106  0.3812 -0.1674
 2461WAT     H110550   4.364   1.932   2.477 -1.3089  0.2809 -1.3916
 2461WAT     H210551   4.498   1.922   2.447 -0.9514 -0.1222  0.2618
 2461WAT    EPW10552   4.429   1.959   2.442  0.2337 -0.6228 -0.2881
 2462WAT      O10553   3.648   1.986   5.782  0.5985 -0.1449 -0.5836
 2462WAT     H110554   3.626   1.901   5.777  1.4747 -0.4475  0.3754
 2462WAT     H210555   3.708   1.995   5.720  0.6778 -0.2867 -0.5285
 2462WAT    EPW10556   3.653   1.974   5.773  0.2970 -0.2290  0.1402
 2463WAT      O10557   5.848   0.523   6.240  0.1780 -0.7668  0.1012
 2463WAT     H110558   5.904   0.508   6.306  0.0382  0.4332  0.5063
 2463WAT     H210559   5.897   0.560   6.179 -0.0444 -0.3119  0.1989
 2463WAT    EPW10560   5.863   0.526   6.241  0.1419  0.3391  0.2793
 2464WAT      O10561   5.454   6.948   2.205 -0.3330 -0.2369  0.7490
 2464WAT     H110562   5.519   6.902   2.169  1.4583 -0.0055  3.4198
 2464WAT     H210563   5.403   6.887   2.240 -0.5026 -0.3440  0.3206
 2464WAT    EPW10564   5.456   6.932   2.205  0.2455  0.3904  0.2089
 2465WAT      O10565   3.532   0.265   0.377  0.2634  0.0496  0.3457
 2465WAT     H110566   3.508   0.301   0.301  0.3048  0.0090  0.3133
 2465WAT     H210567   3.553   0.334   0.427 -0.9516  0.1610  0.7375
 2465WAT    EPW10568   3.531   0.281   0.373  0.3830  0.2748  0.1496
 2466WAT      O10569   6.706   0.306   6.519  0.5898 -0.2416  0.2118
 2466WAT     H110570   6.647   0.243   6.525 -2.3145  2.0933 -1.4081
 2466WAT     H210571   6.764   0.275   6.462 -0.7419 -1.4750 -0.5226
 2466WAT    EPW10572   6.706   0.292   6.512  0.4367  0.1076 -0.2763
 2467WAT      O10573   6.215   6.987   2.403 -0.4877 -0.2347  0.3067
 2467WAT     H110574   6.174   7.064   2.399  0.1450  0.1486  1.0483
 2467WAT     H210575   6.297   7.006   2.381 -0.3304 -0.6996  0.4780
 2467WAT    EPW10576   6.221   7.001   2.399 -0.6610 -0.2082  0.4364
 2468WAT      O10577   6.954   2.184   3.015  0.7400 -0.3078 -0.4059
 2468WAT     H110578   6.965   2.118   3.070  0.3682 -0.9615 -1.0898
 2468WAT     H210579   6.901   2.151   2.954 -0.9787  1.1759  0.1984
 2468WAT    EPW10580   6.948   2.170   3.014 -0.4711 -0.2700  0.0603
 2469WAT      O10581   7.149   3.721   6.220 -0.4469 -0.7042 -0.1093
 2469WAT     H110582   7.117   3.653   6.265  0.3519 -0.5071  0.8027
 2469WAT     H210583   7.139   3.788   6.275  1.2820 -0.5972  0.1179
 2469WAT    EPW10584   7.143   3.721   6.235 -0.5430  0.5301  0.6435
 2470WAT      O10585   0.555   5.166   2.514  0.5526 -0.3052 -0.2600
 2470WAT     H110586   0.544   5.115   2.584  0.2807  1.6020  1.1677
 2470WAT     H210587   0.481   5.212   2.509  1.3033  0.9121 -0.6427
 2470WAT    EPW10588   0.543   5.165   2.523 -0.2850 -0.4547 -0.6562
 2471WAT      O10589   0.578   7.122   4.311  0.4135 -0.2262 -0.0453
 2471WAT     H110590   0.507   7.117   4.362  0.3103  1.3627  0.0068
 2471WAT     H210591   0.632   7.174   4.355  1.0486 -0.2596 -0.7527
 2471WAT    EPW10592   0.575   7.129   4.325  0.0577  0.3520  0.1330
 2472WAT      O10593   1.842   3.071   5.316  0.6835 -0.5261  0.1718
 2472WAT     H110594   1.757   3.052   5.320  0.9396 -1.6295  1.1215
 2472WAT     H210595   1.852   3.132   5.376  0.3958  0.4039 -0.6976
 2472WAT    EPW10596   1.831   3.077   5.325  0.2533 -0.1432 -0.4593
 2473WAT      O10597   0.329   1.856   1.871  0.1849 -0.0908  0.0849
 2473WAT     H110598   0.378   1.881   1.938  1.1201  2.5068 -1.4003
 2473WAT     H210599   0.370   1.785   1.841  1.0604  0.0493  0.9057
 2473WAT    EPW10600   0.342   1.850   1.876 -0.4301  0.2256  0.2105
 2474WAT      O10601   7.474   6.352   1.096 -0.1075 -0.2753  0.0447
 2474WAT     H110602   7.533   6.374   1.035  0.4336  0.4637  0.8067
 2474WAT     H210603   7.494   6.270   1.116  0.6116 -0.0652  0.2187
 2474WAT    EPW10604   7.485   6.343   1.090  0.5101 -0.5944  0.2984
 2475WAT      O10605   1.496   7.257   7.536  0.2706  0.5600 -0.4139
 2475WAT     H110606   1.543   7.271   7.464  1.9238  0.0887  0.5195
 2475WAT     H210607   1.528   7.315   7.593 -0.6747  0.6024  0.0921
 2475WAT    EPW10608   1.508   7.268   7.534 -0.9638 -0.3503  0.2040
 2476WAT      O10609   5.738   3.070   6.226 -0.0268 -0.1843  0.3724
 2476WAT     H110610   5.707   3.031   6.154  1.7753  0.8497 -1.0403
 2476WAT     H210611   5.822   3.046   6.228  0.5257  1.6259  0.8390
 2476WAT    EPW10612   5.746   3.060   6.216  0.6238 -0.0945  0.6611
 2477WAT      O10613   4.682   6.711   3.649  0.2137  0.1009  0.2456
 2477WAT     H110614   4.637   6.781   3.623  0.1946 -0.2821 -0.8305
 2477WAT     H210615   4.664   6.651   3.587 -1.9083 -1.7883  2.4580
 2477WAT    EPW10616   4.673   6.712   3.636 -0.4745 -0.1837  0.2751
 2478WAT      O10617   5.884   1.559   3.681 -0.1286  0.1434  0.7368
 2478WAT     H110618   5.895   1.513   3.608  0.5726  0.0728  0.8857
 2478WAT     H210619   5.897   1.501   3.744 -0.1083  0.3466  0.9203
 2478WAT    EPW10620   5.888   1.544   3.679 -0.7246  0.1515  0.0066
 2479WAT      O10621   7.262   1.118   4.503 -0.1260 -0.5543  0.5159
 2479WAT     H110622   7.198   1.155   4.550  2.1739  3.0890  1.1679
 2479WAT     H210623   7.251   1.152   4.423  1.1233  0.4522  0.7360
 2479WAT    EPW10624   7.251   1.128   4.498 -0.2809 -0.0341 -0.9626
 2480WAT      O10625   1.976   1.482   0.813  0.0270  0.1631 -0.1453
 2480WAT     H110626   1.931   1.555   0.826  2.4712  1.8445 -0.3132
 2480WAT     H210627   2.028   1.477   0.883  1.1643 -0.3826 -0.9871
 2480WAT    EPW10628   1.977   1.492   0.826  0.1240  0.1219  0.1856
 2481WAT      O10629   6.643   5.080   1.887  0.0741 -0.7877  0.7406
 2481WAT     H110630   6.584   5.040   1.937 -1.1661  0.5193  0.3983
 2481WAT     H210631   6.596   5.138   1.842  1.2025 -1.5127 -1.5652
 2481WAT    EPW10632   6.627   5.082   1.888  0.4834 -0.0272  0.0265
 2482WAT      O10633   0.650   5.808   3.813 -0.2545  0.3139 -0.1138
 2482WAT     H110634   0.592   5.751   3.783 -1.2082  0.0198  2.0947
 2482WAT     H210635   0.709   5.758   3.854 -0.1800  0.8140  0.3951
 2482WAT    EPW10636   0.650   5.792   3.814  0.4084 -0.0564  0.0075
 2483WAT      O10637   3.283   2.385   0.649 -0.6184  0.3501 -0.0352
 2483WAT     H110638   3.294   2.354   0.730 -2.3715 -0.3409 -0.0185
 2483WAT     H210639   3.269   2.470   0.662  0.1192  0.4427  0.2668
 2483WAT    EPW10640   3.283   2.393   0.663  0.6663 -0.0624 -0.6233
 2484WAT      O10641   6.450   3.249   3.331  0.1155  0.1696 -0.1683
 2484WAT     H110642   6.445   3.175   3.285  0.8401  0.3821 -0.6021
 2484WAT     H210643   6.525   3.240   3.376 -0.3329  0.1813  0.5978
 2484WAT    EPW10644   6.460   3.237   3.331  0.2155  0.5850 -0.5918
 2485WAT      O10645   5.546   7.008   1.841  0.1178  0.1270 -0.2685
 2485WAT     H110646   5.485   7.041   1.788 -0.3371  0.2102  0.2948
 2485WAT     H210647   5.525   6.924   1.846  0.8207 -0.1109 -1.0905
 2485WAT    EPW10648   5.534   7.001   1.834 -0.2925 -0.2788  0.0499
 2486WAT      O10649   1.932   0.767   4.154  0.5175  0.1276  0.3169
 2486WAT     H110650   2.016   0.782   4.137  0.6490  1.1120  1.6772
 2486WAT     H210651   1.891   0.832   4.112  0.5310  0.3125  0.5887
 2486WAT    EPW10652   1.938   0.779   4.145 -0.3587 -0.1457  0.1168
 2487WAT      O10653   2.617   5.505   0.595 -0.3577 -0.1718  0.2577
 2487WAT     H110654   2.563   5.484   0.530  0.7514 -1.3776 -0.3124
 2487WAT     H210655   2.681   5.548   0.555  1.1196 -2.2544  0.2389
 2487WAT    EPW10656   2.618   5.508   0.580 -0.0716  0.5284 -0.4171
 2488WAT      O10657   3.518   2.742   0.669 -1.0950  0.0315 -0.2769
 2488WAT     H110658   3.525   2.709   0.589 -2.5795 -0.6326 -0.1652
 2488WAT     H210659   3.517   2.829   0.655 -0.5137 -0.0499 -0.8827
 2488WAT    EPW10660   3.519   2.750   0.655  0.3138  0.3153  0.9276
 2489WAT      O10661   5.092   3.688   5.294 -0.3555  0.4407 -0.4107
 2489WAT     H110662   5.147   3.670   5.360  0.2406 -0.5567 -1.1464
 2489WAT     H210663   5.028   3.630   5.304 -0.9838  1.1908  0.0730
 2489WAT    EPW10664   5.091   3.677   5.306 -0.1149  0.2461  0.4340
 2490WAT      O10665   1.667   2.622   7.002  0.3616 -0.7626 -0.4073
 2490WAT     H110666   1.698   2.560   7.054  0.0055 -0.9149 -0.3719
 2490WAT     H210667   1.708   2.694   7.030  0.6631 -0.9542 -0.3512
 2490WAT    EPW10668   1.677   2.624   7.014  0.0160  0.3644 -0.1920
 2491WAT      O10669   5.097   6.216   6.071 -0.2573 -0.2651  0.1361
 2491WAT     H110670   5.162   6.263   6.106  0.3495 -0.9619 -0.0298
 2491WAT     H210671   5.123   6.133   6.084 -0.3613 -0.5437 -1.2968
 2491WAT    EPW10672   5.111   6.210   6.078 -0.0486 -0.2357  0.4071
 2492WAT      O10673   3.233   6.192   3.961  0.1969 -0.1126 -0.1384
 2492WAT     H110674   3.276   6.152   4.026  0.6638 -1.4437 -1.2254
 2492WAT     H210675   3.279   6.171   3.890  0.7476  2.7796 -0.7650
 2492WAT    EPW10676   3.246   6.183   3.960  0.1262  0.2506  0.1539
 2493WAT      O10677   2.468   0.841   1.492  0.1222  0.0735 -0.2245
 2493WAT     H110678   2.516   0.904   1.457 -1.2104  2.0324  1.2346
 2493WAT     H210679   2.387   0.862   1.469 -0.6170  0.4133  2.3096
 2493WAT    EPW10680   2.463   0.853   1.484  0.3674  0.4022  0.2926
 2494WAT      O10681   6.704   6.475   0.193  0.2426  0.0040 -0.3002
 2494WAT     H110682   6.744   6.512   0.125  2.2681  0.2288  0.9153
 2494WAT     H210683   6.685   6.395   0.164  3.2321 -0.7638 -0.5177
 2494WAT    EPW10684   6.707   6.468   0.179  0.1440  0.3067  0.3593
 2495WAT      O10685   0.034   6.839   1.993 -0.2532  0.0438  0.0815
 2495WAT     H110686  -0.042   6.850   1.952 -0.4438 -2.2033 -0.2803
 2495WAT     H210687   0.091   6.882   1.943 -0.9385 -0.1837 -0.9108
 2495WAT    EPW10688   0.031   6.847   1.980 -0.2563  0.2374  0.3250
 2496WAT      O10689   2.984   7.324   5.584 -0.1299  0.0070  0.7323
 2496WAT     H110690   3.056   7.282   5.610  0.6651  0.8121 -0.1042
 2496WAT     H210691   2.942   7.264   5.536  0.0219 -0.4330  1.1316
 2496WAT    EPW10692   2.988   7.309   5.581  0.9727  0.1987  0.0689
 2497WAT      O10693   7.218   0.146   1.532 -0.1198 -0.3344  0.3160
 2497WAT     H110694   7.197   0.201   1.596 -0.2589  1.6369 -1.3096
 2497WAT     H210695   7.302   0.127   1.549  0.2049  1.0966  0.4917
 2497WAT    EPW10696   7.228   0.152   1.544  0.2497  0.4422 -0.0790
 2498WAT      O10697   6.763   0.364   6.772  0.3970 -0.1891 -0.4421
 2498WAT     H110698   6.847   0.347   6.785  0.1303 -1.2690  0.0618
 2498WAT     H210699   6.753   0.352   6.686  0.8672  0.5374 -0.6047
 2498WAT    EPW10700   6.774   0.359   6.761 -0.2904 -0.0561 -0.2703
 2499WAT      O10701   4.160   3.437   1.046  0.2099  0.3446  0.4934
 2499WAT     H110702   4.203   3.488   0.990 -0.9966  2.4270  1.3608
 2499WAT     H210703   4.119   3.379   0.994  2.3375 -0.4089 -0.4518
 2499WAT    EPW10704   4.160   3.436   1.030 -0.8960  0.2817  0.3440
 2500WAT      O10705   6.074   2.797   4.535  0.3663 -0.3889  0.2427
 2500WAT     H110706   6.061   2.880   4.512  0.6406 -0.7073 -1.1071
 2500WAT     H210707   6.107   2.760   4.463 -1.7903 -2.1866  0.0824
 2500WAT    EPW10708   6.077   2.804   4.521  1.0047 -0.3105 -0.2069
 2501WAT      O10709   4.295   7.024   2.284 -0.5465 -0.4353  0.2750
 2501WAT     H110710   4.323   7.034   2.202  1.6738  0.0158  1.0224
 2501WAT     H210711   4.208   7.032   2.277 -0.2828  1.9466 -1.7255
 2501WAT    EPW10712   4.286   7.026   2.270 -0.1630 -0.0142 -0.4399
 2502WAT      O10713   7.621   0.578   5.002 -0.1763  0.0493 -0.4096
 2502WAT     H110714   7.640   0.527   4.934  2.1190  0.3645 -0.0954
 2502WAT     H210715   7.547   0.618   4.979 -0.4752 -1.2902 -1.8709
 2502WAT    EPW10716   7.613   0.577   4.989  0.2294 -0.1056  0.5855
 2503WAT      O10717   3.076   6.590   6.573 -0.3970  0.2485  0.2181
 2503WAT     H110718   3.007   6.537   6.565 -0.2635 -0.1470  1.5067
 2503WAT     H210719   3.058   6.655   6.517 -0.7101 -0.9737 -1.1655
 2503WAT    EPW10720   3.063   6.592   6.564 -0.0095 -0.3622  0.4851
 2504WAT      O10721   5.711   2.043   6.099 -0.4720 -0.3770 -0.2857
 2504WAT     H110722   5.774   2.088   6.139 -0.7856  1.4096 -1.6738
 2504WAT     H210723   5.754   1.984   6.051  0.1054  0.2385 -0.5320
 2504WAT    EPW10724   5.726   2.041   6.098  0.5339 -0.0867 -0.0993
 2505WAT      O10725   1.557   1.091   1.463  0.2038  0.1372 -0.2153
 2505WAT     H110726   1.488   1.115   1.416  0.5462 -1.6045 -1.7465
 2505WAT     H210727   1.567   1.007   1.442  1.8768 -0.0497  1.1379
 2505WAT    EPW10728   1.548   1.082   1.453 -0.0821 -0.7768  0.0116
 2506WAT      O10729   7.641   2.786   6.886 -0.1220  0.6879 -0.1544
 2506WAT     H110730   7.607   2.743   6.819  1.4229  0.5607 -0.8999
 2506WAT     H210731   7.653   2.867   6.855  0.7587  0.5849 -0.1082
 2506WAT    EPW10732   7.637   2.791   6.872 -0.1693 -0.1352  0.3357
 2507WAT      O10733   4.267   0.026   0.949  0.2132  0.1165  0.0810
 2507WAT     H110734   4.350   0.021   0.925  0.1672 -0.0262 -0.0524
 2507WAT     H210735   4.236  -0.054   0.931  0.6564 -0.6700  2.4163
 2507WAT    EPW10736   4.274   0.013   0.943  0.0809 -0.0660 -0.0095
 2508WAT      O10737   0.462   6.706   7.003 -0.3733 -0.5278 -0.1745
 2508WAT     H110738   0.420   6.634   7.028 -0.9347 -0.4462 -0.8597
 2508WAT     H210739   0.546   6.683   7.003 -0.5794 -1.2935 -0.7648
 2508WAT    EPW10740   0.468   6.692   7.007  0.3756 -0.3501  0.2827
 2509WAT      O10741   6.228   3.824   2.108  0.0343  0.3452  0.2514
 2509WAT     H110742   6.250   3.763   2.049  0.9887 -0.0786  1.0141
 2509WAT     H210743   6.278   3.892   2.087 -2.8817  1.9546 -2.2617
 2509WAT    EPW10744   6.238   3.825   2.096  0.0249  0.3829  0.4248
 2510WAT      O10745   4.686   4.068   7.404  0.6121  0.1448 -0.2929
 2510WAT     H110746   4.622   4.124   7.421  1.0153  0.4836  0.1320
 2510WAT     H210747   4.759   4.112   7.423  1.0258  0.0532 -1.5569
 2510WAT    EPW10748   4.688   4.083   7.410 -0.1998  0.2074 -0.1420
 2511WAT      O10749   7.112   5.024   1.710 -0.3235  0.0521  0.3689
 2511WAT     H110750   7.029   5.004   1.729  0.0490 -1.4494  0.5692
 2511WAT     H210751   7.154   5.012   1.786  0.4112 -1.3922 -0.2221
 2511WAT    EPW10752   7.106   5.019   1.724  0.6961 -0.2133  0.4517
 2512WAT      O10753   3.810   0.321   6.808  0.1550 -0.1331 -0.0708
 2512WAT     H110754   3.765   0.250   6.783  0.2471 -0.1604 -0.1570
 2512WAT     H210755   3.888   0.310   6.772  0.0886  0.1414 -0.3032
 2512WAT    EPW10756   3.815   0.309   6.799 -0.4687 -0.1620  0.5172
 2513WAT      O10757   3.784   7.114   6.415 -0.5561  0.3358 -0.4134
 2513WAT     H110758   3.854   7.150   6.378  0.4326  0.5409  1.4894
 2513WAT     H210759   3.802   7.029   6.413 -0.1610  0.3957  0.1766
 2513WAT    EPW10760   3.797   7.107   6.410  0.2429  0.8079 -0.4004
 2514WAT      O10761   7.432   5.059   2.916 -0.2978 -0.3092  0.4402
 2514WAT     H110762   7.436   5.099   2.839 -1.3471  0.7791  0.9347
 2514WAT     H210763   7.402   4.979   2.896 -1.1621  0.1659 -0.2156
 2514WAT    EPW10764   7.428   5.053   2.901 -0.2768  0.7359  0.5974
 2515WAT      O10765   1.837   4.971   5.604  0.4844  0.6021 -0.2843
 2515WAT     H110766   1.878   4.941   5.533  1.1396  2.7355 -0.8773
 2515WAT     H210767   1.754   4.948   5.590  0.9471 -0.9727 -0.6219
 2515WAT    EPW10768   1.831   4.964   5.592 -0.4611 -0.1234  0.5886
 2516WAT      O10769   0.261   6.301   2.794  0.2918  0.2574 -0.2752
 2516WAT     H110770   0.295   6.318   2.715  0.3917 -0.1164 -0.3139
 2516WAT     H210771   0.242   6.380   2.825 -1.8419  0.3319 -1.5858
 2516WAT    EPW10772   0.263   6.315   2.787  0.4308 -0.3281  0.2818
 2517WAT      O10773   3.746   5.801   3.804  0.1060 -0.1128  0.2548
 2517WAT     H110774   3.672   5.838   3.832  0.3313  0.0130  0.6841
 2517WAT     H210775   3.787   5.777   3.877 -0.0899 -1.3478 -0.0072
 2517WAT    EPW10776   3.741   5.803   3.819 -0.0689 -0.7276  0.0100
 2518WAT      O10777   7.039   0.881   6.914  0.0907 -0.2417 -0.4349
 2518WAT     H110778   6.991   0.814   6.944  1.6271 -1.0418  0.4063
 2518WAT     H210779   7.107   0.841   6.876  0.2993  0.8435 -1.2380
 2518WAT    EPW10780   7.042   0.865   6.913 -0.1064  0.5283  0.1817
 2519WAT      O10781   2.974   5.408   0.115  0.3118 -0.1157 -0.8059
 2519WAT     H110782   2.947   5.354   0.051  1.0870  0.2916 -1.4836
 2519WAT     H210783   3.001   5.478   0.073 -0.7868  0.8890  0.0835
 2519WAT    EPW10784   2.974   5.410   0.100 -0.2107  0.0700 -0.0235
 2520WAT      O10785   0.227   0.871   7.453  0.0284  0.1792 -0.2510
 2520WAT     H110786   0.169   0.911   7.504  1.1251  1.8338 -0.2295
 2520WAT     H210787   0.271   0.937   7.416  0.0363 -0.9812 -2.4596
 2520WAT    EPW10788   0.225   0.887   7.455  0.0336 -0.1412  0.0334
 2521WAT      O10789   1.535   5.932   6.784  0.2523  0.3290  0.4348
 2521WAT     H110790   1.510   5.911   6.703  1.2705  0.1463  0.1651
 2521WAT     H210791   1.506   5.864   6.832  1.1170 -0.3934 -0.0322
 2521WAT    EPW10792   1.527   5.919   6.779 -0.2730 -0.2902 -0.3143
 2522WAT      O10793   0.906   3.308   4.165 -0.7408  0.7588 -0.1249
 2522WAT     H110794   0.892   3.229   4.132  0.2256  0.7657 -0.5954
 2522WAT     H210795   0.866   3.305   4.243  0.3735 -0.6639  0.4488
 2522WAT    EPW10796   0.898   3.296   4.172  0.1807 -0.2816  0.0113
 2523WAT      O10797   6.568   1.005   2.574 -0.2195 -0.7835 -0.3048
 2523WAT     H110798   6.525   0.930   2.563  0.6371 -1.4623  0.7596
 2523WAT     H210799   6.650   0.979   2.592 -0.4317  0.2612  2.6405
 2523WAT    EPW10800   6.574   0.990   2.575  0.3379  0.1061 -0.4867
 2524WAT      O10801   4.892   5.681   4.582 -0.3665  0.3889 -0.3546
 2524WAT     H110802   4.976   5.706   4.585 -0.6178  1.2987 -0.5428
 2524WAT     H210803   4.886   5.641   4.505  0.3350 -1.4404  0.4674
 2524WAT    EPW10804   4.904   5.679   4.571  0.1966 -0.9494  0.1798
 2525WAT      O10805   5.785   6.763   5.846  0.2307  0.4207 -0.4443
 2525WAT     H110806   5.710   6.722   5.863  1.0229 -0.3726  1.4012
 2525WAT     H210807   5.760   6.841   5.816 -1.4110  1.0858  2.3390
 2525WAT    EPW10808   5.771   6.768   5.844 -0.0474 -1.4144  0.5665
 2526WAT      O10809   4.040   1.001   0.567  0.0055  0.7353  0.7227
 2526WAT     H110810   4.090   1.037   0.506  0.2419 -0.5259  0.1238
 2526WAT     H210811   4.018   1.067   0.619 -0.0580  1.8110 -0.6342
 2526WAT    EPW10812   4.044   1.016   0.566 -0.0438 -0.8130  0.2989
 2527WAT      O10813   4.626   6.297   5.214  0.2952 -0.3626  0.8610
 2527WAT     H110814   4.703   6.274   5.178  0.8543 -0.3832  2.0321
 2527WAT     H210815   4.590   6.347   5.152 -0.6950 -3.6905 -1.5413
 2527WAT    EPW10816   4.632   6.301   5.199  0.0159 -0.4848  0.6924
 2528WAT      O10817   0.203   4.274   5.370 -0.3301 -0.3418  0.1403
 2528WAT     H110818   0.142   4.295   5.429 -1.3079 -1.2398 -0.5137
 2528WAT     H210819   0.233   4.197   5.399 -2.0341 -1.6605 -1.3844
 2528WAT    EPW10820   0.198   4.266   5.383 -0.3724 -1.3429  0.4446
 2529WAT      O10821   0.044   1.586   3.260 -0.6670 -0.2498 -0.3790
 2529WAT     H110822  -0.040   1.566   3.268 -0.8038 -0.3482 -1.8355
 2529WAT     H210823   0.083   1.529   3.314 -1.5246 -0.0958  0.4298
 2529WAT    EPW10824   0.038   1.574   3.269  0.3089  0.1710 -0.2842
 2530WAT      O10825   2.936   4.851   1.277  0.0782  0.6107  0.2895
 2530WAT     H110826   2.964   4.837   1.358 -0.2222 -0.7219  0.1880
 2530WAT     H210827   3.002   4.825   1.227  0.2003  1.2722  0.1021
 2530WAT    EPW10828   2.950   4.845   1.281 -0.2670 -0.2402 -0.1100
 2531WAT      O10829   2.494   5.721   6.656  0.3043 -0.3209  0.1618
 2531WAT     H110830   2.475   5.655   6.602  1.2916 -0.1208 -0.4505
 2531WAT     H210831   2.502   5.789   6.603 -0.0985  0.1675  0.7250
 2531WAT    EPW10832   2.492   5.721   6.640 -0.1150  0.1353  0.3864
 2532WAT      O10833   5.491   5.311   1.567  0.2440 -0.4266 -0.5224
 2532WAT     H110834   5.534   5.323   1.642  2.8648 -1.7711 -1.6842
 2532WAT     H210835   5.550   5.328   1.506 -1.5885 -0.0977 -2.3276
 2532WAT    EPW10836   5.506   5.315   1.569  0.0004  0.3458  0.3932
 2533WAT      O10837   4.549   3.479   4.230  0.2580  0.0462 -0.3674
 2533WAT     H110838   4.481   3.438   4.265  0.7732  1.1401  2.1010
 2533WAT     H210839   4.523   3.497   4.149 -1.1704 -2.2913 -0.5170
 2533WAT    EPW10840   4.535   3.475   4.223 -0.1916 -0.1201  0.2746
 2534WAT      O10841   6.540   1.394   4.299  0.7381  0.1936 -0.4160
 2534WAT     H110842   6.613   1.349   4.308  1.5026  1.2156 -1.2706
 2534WAT     H210843   6.497   1.379   4.374  0.4769 -2.6767 -1.0180
 2534WAT    EPW10844   6.544   1.385   4.312  0.5429 -0.2843  0.2933
 2535WAT      O10845   5.873   4.697   5.490  0.0331  0.4277  0.3561
 2535WAT     H110846   5.805   4.643   5.476 -0.7116  1.6953 -1.1876
 2535WAT     H210847   5.896   4.680   5.573  0.6483 -3.1440 -0.3625
 2535WAT    EPW10848   5.866   4.686   5.500  0.6194 -0.1655 -0.1285
 2536WAT      O10849   6.070   0.095   5.578  0.2087  0.1450 -1.3207
 2536WAT     H110850   6.152   0.111   5.604  1.0683 -2.0247 -2.4590
 2536WAT     H210851   6.073   0.110   5.492  0.2888 -2.7200 -1.9230
 2536WAT    EPW10852   6.083   0.100   5.569 -0.0782 -0.3193  0.7140
 2537WAT      O10853   5.568   4.923   4.520  0.2056 -0.0675 -0.4827
 2537WAT     H110854   5.600   4.998   4.489  2.1862 -0.5989  0.1220
 2537WAT     H210855   5.603   4.917   4.599 -2.1736 -0.3039  0.6239
 2537WAT    EPW10856   5.578   4.933   4.527  0.0538  0.6598 -0.1842
 2538WAT      O10857   4.714   1.953   3.112 -0.5699 -1.0014 -0.4790
 2538WAT     H110858   4.764   1.976   3.179  0.1640  0.4083 -1.4749
 2538WAT     H210859   4.740   1.871   3.094  0.3732 -0.8013 -0.0801
 2538WAT    EPW10860   4.725   1.944   3.119  0.6795  0.4620 -0.3247
 2539WAT      O10861   5.190   0.235   3.100 -0.1252  0.2709  0.3146
 2539WAT     H110862   5.144   0.160   3.103  1.0273 -0.4865 -0.1125
 2539WAT     H210863   5.248   0.225   3.164  1.5961 -0.3066 -1.2467
 2539WAT    EPW10864   5.192   0.222   3.110 -0.5580  0.2095 -0.3253
 2540WAT      O10865   6.243   1.118   3.204  0.1930  0.4687 -0.8049
 2540WAT     H110866   6.256   1.201   3.227  0.5359  0.5278 -1.2069
 2540WAT     H210867   6.310   1.100   3.151  1.5470 -0.8235  1.1858
 2540WAT    EPW10868   6.255   1.128   3.200 -0.3672 -0.0214  0.1362
 2541WAT      O10869   4.887   6.197   4.200 -0.4520  0.5234  0.0775
 2541WAT     H110870   4.906   6.145   4.267 -0.5086  0.5550  0.1183
 2541WAT     H210871   4.803   6.218   4.214 -0.4311  0.6193  0.0572
 2541WAT    EPW10872   4.877   6.192   4.212 -0.1876  0.1606  0.6383
 2542WAT      O10873   6.273   1.645   1.609 -1.3969  0.2596  0.0661
 2542WAT     H110874   6.254   1.713   1.661 -1.1703 -0.7406  1.5244
 2542WAT     H210875   6.360   1.646   1.605 -1.4455  1.2514 -1.6330
 2542WAT    EPW10876   6.283   1.655   1.616  0.2500  0.0671 -0.4141
 2543WAT      O10877   5.577   0.607   2.023 -0.1148  0.6732  0.0859
 2543WAT     H110878   5.602   0.652   1.953 -1.1308  0.4496 -0.4336
 2543WAT     H210879   5.515   0.554   1.992  0.1119 -0.1296  0.9551
 2543WAT    EPW10880   5.572   0.606   2.008 -0.4732 -0.3725 -0.1458
 2544WAT      O10881   0.695   1.521   3.996  0.9255 -0.1133 -0.1669
 2544WAT     H110882   0.620   1.476   3.997  0.3126  0.8587 -0.5147
 2544WAT     H210883   0.755   1.463   4.022 -0.1649 -0.5241  1.6076
 2544WAT    EPW10884   0.693   1.506   4.000  0.0618 -0.6840  0.3972
 2545WAT      O10885   4.221   5.485   1.486 -0.0304  0.2316 -0.3225
 2545WAT     H110886   4.181   5.503   1.561  0.8137 -2.6965  0.9888
 2545WAT     H210887   4.303   5.466   1.511  0.4418 -0.2400 -2.0733
 2545WAT    EPW10888   4.227   5.485   1.501 -0.0628  0.1540 -0.0247
 2546WAT      O10889   7.403   2.717   2.913  0.0437  0.6100 -0.4331
 2546WAT     H110890   7.334   2.764   2.937  0.6776  1.2002  0.2666
 2546WAT     H210891   7.385   2.638   2.946 -1.4714  0.0331 -2.4157
 2546WAT    EPW10892   7.390   2.712   2.922 -0.0728 -0.0908  0.2485
 2547WAT      O10893   7.042   3.485   6.335 -0.1045  0.0820 -0.4977
 2547WAT     H110894   7.091   3.418   6.363  0.5722  1.0570  0.7591
 2547WAT     H210895   6.978   3.489   6.393  0.7584  1.5018  0.4140
 2547WAT    EPW10896   7.040   3.476   6.347  0.4950 -0.3139 -0.2694
 2548WAT      O10897   3.570   1.550   4.953 -0.3606 -0.3642  0.0467
 2548WAT     H110898   3.627   1.615   4.941  1.1363 -1.8408 -1.4657
 2548WAT     H210899   3.578   1.532   5.038  1.7831 -0.7563 -0.1696
 2548WAT    EPW10900   3.580   1.557   4.964 -0.4892  0.5202  0.1174
 2549WAT      O10901   5.031   2.366   6.349 -0.1350 -0.5820  0.2453
 2549WAT     H110902   5.036   2.292   6.395 -4.0100 -1.2309 -0.0334
 2549WAT     H210903   5.080   2.350   6.278  0.7281 -2.0517  1.1240
 2549WAT    EPW10904   5.039   2.353   6.345 -0.2318 -0.2959 -0.6629
 2550WAT      O10905   1.044   6.235   3.490 -0.3915 -0.3067 -0.2141
 2550WAT     H110906   0.973   6.272   3.525 -1.4101 -0.2027 -2.2494
 2550WAT     H210907   1.072   6.296   3.434 -0.5366 -1.5458 -1.6754
 2550WAT    EPW10908   1.037   6.250   3.487  0.1757  0.1063 -0.7228
 2551WAT      O10909   7.232   2.979   5.215 -0.3763 -0.2286 -0.2594
 2551WAT     H110910   7.161   2.928   5.217 -0.5352 -0.0023  1.3052
 2551WAT     H210911   7.203   3.057   5.242  0.3906 -0.0629  0.1396
 2551WAT    EPW10912   7.217   2.983   5.220  0.9779 -0.5295 -0.3175
 2552WAT      O10913   7.038   2.926   0.292 -0.2292  0.1220 -0.2688
 2552WAT     H110914   7.067   2.982   0.231  1.2604 -0.1412  0.1566
 2552WAT     H210915   7.102   2.925   0.351 -1.1724 -0.4474  0.7818
 2552WAT    EPW10916   7.052   2.934   0.291 -0.3027  0.0495  0.4164
 2553WAT      O10917   7.060   1.897   0.416  0.1901  0.0485 -0.0243
 2553WAT     H110918   7.041   1.821   0.456 -1.7468  0.6520  0.3057
 2553WAT     H210919   7.144   1.910   0.435  0.0179 -1.0202  1.6239
 2553WAT    EPW10920   7.069   1.888   0.425 -0.6008 -0.5789  0.2800
 2554WAT      O10921   6.649   1.600   2.517 -0.2068 -0.0917 -0.0464
 2554WAT     H110922   6.607   1.666   2.480  0.4930  0.3550 -0.0746
 2554WAT     H210923   6.621   1.601   2.600 -0.6492 -0.1511 -0.1925
 2554WAT    EPW10924   6.639   1.610   2.524 -0.0336  0.5956  0.0825
 2555WAT      O10925   4.834   1.594   6.229 -0.4176  0.3846  0.0342
 2555WAT     H110926   4.756   1.633   6.232 -0.3802  0.5761 -1.0420
 2555WAT     H210927   4.889   1.658   6.206 -0.3017 -0.2044 -1.4254
 2555WAT    EPW10928   4.831   1.609   6.226 -0.0297  0.2310  0.4357
 2556WAT      O10929   3.435   5.262   7.004  0.0991  0.4488 -0.1246
 2556WAT     H110930   3.436   5.347   6.983 -0.3012  0.6433  0.5960
 2556WAT     H210931   3.383   5.226   6.944 -0.1745  0.8081 -0.1068
 2556WAT    EPW10932   3.428   5.269   6.992  0.1117 -0.3121 -0.1421
 2557WAT      O10933   6.979   3.449   0.740  0.1522 -0.1878  0.9709
 2557WAT     H110934   6.966   3.500   0.670 -2.1032  2.3346  3.0100
 2557WAT     H210935   6.930   3.379   0.723  0.9088 -0.3864 -0.6040
 2557WAT    EPW10936   6.970   3.446   0.727  0.7777 -0.0706 -0.5696
 2558WAT      O10937   4.169   6.204   6.337 -0.4730 -0.2245  0.0237
 2558WAT     H110938   4.239   6.159   6.311 -0.1308  0.6814 -0.6639
 2558WAT     H210939   4.154   6.173   6.418 -0.0623 -1.3297 -0.2985
 2558WAT    EPW10940   4.177   6.192   6.345 -0.3122 -0.3409 -0.2210
 2559WAT      O10941   5.121   3.619   5.733  0.4338  0.0822  0.3033
 2559WAT     H110942   5.109   3.702   5.708 -2.0002  0.1076  1.2305
 2559WAT     H210943   5.133   3.625   5.819  0.7252 -0.4839  0.2998
 2559WAT    EPW10944   5.121   3.632   5.742 -0.2917 -0.3550  0.1308
 2560WAT      O10945   2.963   5.013   6.687  0.2757  0.5769  0.1793
 2560WAT     H110946   2.962   5.007   6.600  0.8849  0.9793  0.1378
 2560WAT     H210947   3.012   4.945   6.712  0.0583  0.4320  0.2068
 2560WAT    EPW10948   2.970   5.002   6.678  0.3737 -0.2869 -0.3123
 2561WAT      O10949   3.714   2.636   0.821  0.1011  0.2975 -0.5022
 2561WAT     H110950   3.761   2.692   0.868 -0.6693 -1.1152  2.1524
 2561WAT     H210951   3.657   2.687   0.780 -0.9160  1.5698  2.2122
 2561WAT    EPW10952   3.712   2.652   0.822  0.0503  0.2161 -0.4651
 2562WAT      O10953   1.886   3.784   6.264  0.1703 -0.6992  0.4730
 2562WAT     H110954   1.891   3.786   6.351 -0.9067 -1.0371  0.5579
 2562WAT     H210955   1.847   3.860   6.244  2.4022  0.4148  0.0923
 2562WAT    EPW10956   1.881   3.796   6.274 -0.2005  0.8542  0.3261
 2563WAT      O10957   2.059   4.761   7.582  0.1253 -0.1625 -0.2034
 2563WAT     H110958   2.132   4.747   7.628  0.1149 -0.2101 -0.2016
 2563WAT     H210959   2.070   4.842   7.551  0.1201 -0.1197 -0.0937
 2563WAT    EPW10960   2.072   4.771   7.584  0.1954  0.4792 -0.4014
 2564WAT      O10961   7.181   0.869   4.198 -0.1065  0.4769 -0.3359
 2564WAT     H110962   7.230   0.853   4.268  1.7971  0.9597 -1.4888
 2564WAT     H210963   7.229   0.925   4.151 -1.3843  0.3057 -1.9566
 2564WAT    EPW10964   7.195   0.875   4.201  0.1780  0.0104  0.4678
 2565WAT      O10965   7.472   4.986   4.490  0.0337 -0.2800 -0.1425
 2565WAT     H110966   7.449   5.002   4.573 -0.5492 -1.2018 -0.1162
 2565WAT     H210967   7.559   4.989   4.492  0.0414  2.4610 -0.0716
 2565WAT    EPW10968   7.482   4.989   4.502 -0.6670 -0.4871  0.4493
 2566WAT      O10969   3.788   5.849   5.194  0.0918  0.0867 -0.5607
 2566WAT     H110970   3.871   5.834   5.173  0.3015 -0.2585  0.4952
 2566WAT     H210971   3.778   5.935   5.179 -0.5086 -0.4724 -4.5151
 2566WAT    EPW10972   3.799   5.860   5.188 -0.2160  0.4398  0.1911
 2567WAT      O10973   2.464   0.230   0.979 -0.2270 -0.1027 -0.4587
 2567WAT     H110974   2.488   0.302   0.936 -2.1435  0.3194 -0.9191
 2567WAT     H210975   2.408   0.192   0.924  0.0672 -1.4887  0.1597
 2567WAT    EPW10976   2.459   0.235   0.964  0.0652  0.5621  0.1005
 2568WAT      O10977   5.544   1.324   6.460  0.5088  0.8619 -0.0200
 2568WAT     H110978   5.497   1.385   6.417 -0.5167 -0.7732 -1.3214
 2568WAT     H210979   5.623   1.360   6.465  0.4480  1.5424 -2.5240
 2568WAT    EPW10980   5.549   1.339   6.455 -0.0520 -0.3182  0.2112
 2569WAT      O10981   2.838   0.394   0.114 -0.0539  0.0074  0.5076
 2569WAT     H110982   2.919   0.374   0.088 -0.1202 -0.2431  0.4858
 2569WAT     H210983   2.815   0.458   0.060 -0.5231 -1.1035 -0.6699
 2569WAT    EPW10984   2.847   0.401   0.102 -0.2529 -0.1793 -0.4197
 2570WAT      O10985   6.479   4.905   0.676 -0.0977 -0.2626 -0.3996
 2570WAT     H110986   6.459   4.943   0.752  1.9873 -0.4503  0.3106
 2570WAT     H210987   6.411   4.852   0.661 -0.4561 -0.4201  1.4844
 2570WAT    EPW10988   6.466   4.902   0.685 -0.4322 -0.5117 -0.1345
 2571WAT      O10989   0.667   1.793   0.863 -0.3142 -0.0340 -0.0775
 2571WAT     H110990   0.609   1.838   0.814 -1.3038 -0.9075  0.2484
 2571WAT     H210991   0.631   1.794   0.943  0.2274 -0.4147  0.1757
 2571WAT    EPW10992   0.653   1.800   0.867 -0.0539  0.0828  0.3378
 2572WAT      O10993   6.570   5.624   1.095  0.1195  0.3900  0.0203
 2572WAT     H110994   6.611   5.696   1.070  2.1015  0.0591  1.9802
 2572WAT     H210995   6.494   5.627   1.052  2.0605  1.0841 -3.7923
 2572WAT    EPW10996   6.564   5.635   1.085 -0.1149  0.1515  0.4998
 2573WAT      O10997   0.835   6.041   0.773  0.2965  0.0221  0.0962
 2573WAT     H110998   0.801   6.121   0.779  0.2905  0.0838 -0.6587
 2573WAT     H210999   0.785   6.001   0.714 -0.1985 -0.8159  1.0464
 2573WAT    EPW11000   0.823   6.047   0.765  0.2911 -0.0981 -0.2867
 2574WAT      O11001   7.332   1.782   1.275 -0.3125  0.1792 -0.1471
 2574WAT     H111002   7.283   1.723   1.317 -1.2872  1.0658  0.0060
 2574WAT     H211003   7.371   1.825   1.340 -1.3057  1.1144 -0.1369
 2574WAT    EPW11004   7.331   1.780   1.291 -0.1162 -0.3129  0.6612
 2575WAT      O11005   1.017   0.018   4.772 -0.1980  0.3023  0.4136
 2575WAT     H111006   0.961  -0.004   4.710 -1.2419  0.8218  1.1365
 2575WAT     H211007   1.073   0.071   4.732 -0.7321  0.4597 -0.1283
 2575WAT    EPW11008   1.017   0.023   4.757  0.2328 -0.2214 -0.1186
 2576WAT      O11009   1.199   4.473   1.198 -0.6095  0.0209 -0.0046
 2576WAT     H111010   1.232   4.422   1.136  0.5198  1.4004 -0.5812
 2576WAT     H211011   1.118   4.443   1.208 -0.2638 -1.3001 -0.9478
 2576WAT    EPW11012   1.192   4.461   1.190 -0.1579  0.4088  0.2989
 2577WAT      O11013   3.477   1.402   7.217  0.3949  0.0641 -0.1730
 2577WAT     H111014   3.499   1.457   7.153 -0.5684  1.6769  0.8229
 2577WAT     H211015   3.472   1.325   7.176 -0.3192  1.0451 -2.0626
 2577WAT    EPW11016   3.480   1.399   7.201  0.1008  0.1763  0.2481
 2578WAT      O11017   5.592   1.682   6.175 -0.2747 -0.7762  0.1790
 2578WAT     H111018   5.662   1.661   6.128  0.2811 -0.4275  0.8239
 2578WAT     H211019   5.575   1.764   6.151  0.9687 -0.0242  1.6663
 2578WAT    EPW11020   5.600   1.691   6.165  0.2029  0.0148 -0.0324
 2579WAT      O11021   7.272   0.531   7.047 -0.0437  0.3640 -0.3969
 2579WAT     H111022   7.206   0.524   6.990  1.6058  0.6298 -2.4890
 2579WAT     H211023   7.265   0.612   7.077 -1.3140  0.0181  0.2819
 2579WAT    EPW11024   7.261   0.542   7.043  0.5125 -0.4348  0.2765
 2580WAT      O11025   2.570   6.750   5.008  0.0056 -0.7673  0.0537
 2580WAT     H111026   2.522   6.809   4.964  0.6129  1.2286  1.8698
 2580WAT     H211027   2.520   6.678   5.006 -0.9697 -0.1240 -1.9062
 2580WAT    EPW11028   2.555   6.748   5.001  0.1217 -0.1132 -0.7499
 2581WAT      O11029   6.573   2.736   5.918  0.1574 -0.3311 -0.3003
 2581WAT     H111030   6.497   2.711   5.883  0.7386 -0.5450 -1.4823
 2581WAT     H211031   6.590   2.812   5.878  0.5505 -0.2813 -0.0408
 2581WAT    EPW11032   6.565   2.744   5.907  0.2886 -0.0304  0.3102
 2582WAT      O11033   0.835   4.819   5.920 -0.7147  0.1995  0.0250
 2582WAT     H111034   0.822   4.865   5.993 -1.7731  2.0848 -1.2578
 2582WAT     H211035   0.902   4.766   5.940 -3.6138 -2.6332  3.7820
 2582WAT    EPW11036   0.843   4.818   5.934 -0.0533 -0.7912 -0.3264
 2583WAT      O11037   5.730   1.254   6.770 -0.1942 -0.1777  0.4025
 2583WAT     H111038   5.778   1.197   6.724 -2.5331 -2.2774  0.3735
 2583WAT     H211039   5.652   1.252   6.732 -1.0748  1.1560  1.9847
 2583WAT    EPW11040   5.726   1.245   6.757 -0.4973 -0.2406  0.4246
 2584WAT      O11041   3.347   1.753   5.463 -0.0403  0.3338  0.2683
 2584WAT     H111042   3.340   1.704   5.391  2.4661  1.4315 -0.8319
 2584WAT     H211043   3.427   1.787   5.458 -0.1169  1.2379  3.1225
 2584WAT    EPW11044   3.358   1.751   5.452 -0.2015  0.1068 -0.0240
 2585WAT      O11045   7.595   1.828   6.925  0.2625 -0.3848 -0.6896
 2585WAT     H111046   7.542   1.895   6.907  2.3410  1.0903 -1.7387
 2585WAT     H211047   7.621   1.843   7.006 -0.3836 -0.7656 -0.4003
 2585WAT    EPW11048   7.591   1.840   6.934 -0.0389  0.5554  0.2823
 2586WAT      O11049   0.019   5.192   1.141 -0.3180 -0.0720 -0.7284
 2586WAT     H111050  -0.034   5.234   1.197  1.2502  2.4187 -0.9198
 2586WAT     H211051   0.047   5.123   1.186 -1.8139 -0.0957  0.2356
 2586WAT    EPW11052   0.015   5.188   1.156  0.9784  0.2198 -0.6917
 2587WAT      O11053   6.469   5.249   1.757  0.3565 -0.3192  0.1073
 2587WAT     H111054   6.407   5.262   1.816  1.5377  1.6740  1.0395
 2587WAT     H211055   6.434   5.278   1.683 -0.1183  0.0278  0.4637
 2587WAT    EPW11056   6.455   5.255   1.755  0.0523 -0.2649  0.1382
 2588WAT      O11057   0.595   4.228   6.436  0.2002 -0.0212  0.7383
 2588WAT     H111058   0.552   4.301   6.458  0.4810  0.6763 -0.8813
 2588WAT     H211059   0.584   4.223   6.349 -0.9916 -2.6955  0.9529
 2588WAT    EPW11060   0.587   4.238   6.426  0.5064 -0.1091  0.2285
 2589WAT      O11061   1.529   2.230   2.047 -0.1036  0.0964 -0.1901
 2589WAT     H111062   1.523   2.145   2.025  2.0260  0.0573 -0.7753
 2589WAT     H211063   1.470   2.238   2.111 -0.3749 -1.8258 -0.1418
 2589WAT    EPW11064   1.519   2.218   2.054  0.5460  0.3930  0.4279
 2590WAT      O11065   4.462   1.123   2.955 -0.0049 -0.2527 -0.7145
 2590WAT     H111066   4.458   1.045   2.994  0.4403  0.5748  1.1115
 2590WAT     H211067   4.383   1.156   2.968 -0.4525 -0.6817 -2.1909
 2590WAT    EPW11068   4.450   1.116   2.963 -0.1980  0.4635 -0.6138
 2591WAT      O11069   2.133   4.797   0.447  0.2913  0.0668  0.2349
 2591WAT     H111070   2.060   4.751   0.459 -0.8211  1.5727 -0.3999
 2591WAT     H211071   2.162   4.811   0.528 -1.0401  0.8144  0.6177
 2591WAT    EPW11072   2.127   4.792   0.460 -0.1225 -0.0556  0.2837
 2592WAT      O11073   5.368   0.736   6.891 -0.0179  0.2695  0.3058
 2592WAT     H111074   5.313   0.726   6.959 -0.8801  0.4398 -0.3417
 2592WAT     H211075   5.314   0.737   6.822  0.8317  0.2448 -0.3690
 2592WAT    EPW11076   5.352   0.735   6.891 -0.2009 -0.1489 -0.2942
 2593WAT      O11077   3.921   2.240   4.017 -0.0062 -0.0121  0.4831
 2593WAT     H111078   3.865   2.303   4.039 -1.0369 -1.3548  2.0046
 2593WAT     H211079   3.979   2.241   4.083  0.0371 -0.5515  0.4567
 2593WAT    EPW11080   3.922   2.249   4.030 -0.4061  0.4079  0.1414
 2594WAT      O11081   2.039   1.925   3.411  0.0722 -0.8072 -0.6796
 2594WAT     H111082   2.082   1.850   3.397 -0.6019 -1.4916  0.7644
 2594WAT     H211083   1.956   1.900   3.418 -0.3490  0.2676 -1.4870
 2594WAT    EPW11084   2.033   1.910   3.410 -0.4383 -0.6062 -0.5371
 2595WAT      O11085   6.747   6.293   4.294  0.1886 -0.0026  0.4227
 2595WAT     H111086   6.759   6.376   4.268 -0.2975 -0.0547  0.0156
 2595WAT     H211087   6.754   6.248   4.220  0.5392 -0.3415  0.6595
 2595WAT    EPW11088   6.750   6.299   4.279  0.1117 -0.0281 -0.0464
 2596WAT      O11089   2.706   5.442   6.314  0.1806  0.1857  0.2726
 2596WAT     H111090   2.735   5.523   6.326 -0.9193  0.6488 -0.0868
 2596WAT     H211091   2.747   5.416   6.241  0.0281  0.6670  0.0141
 2596WAT    EPW11092   2.717   5.450   6.305  0.0179 -0.0208 -0.5253
 2597WAT      O11093   0.938   4.281   0.072  0.0767  0.1047 -0.4385
 2597WAT     H111094   0.854   4.289   0.048 -0.3391 -1.3432  0.3821
 2597WAT     H211095   0.964   4.207   0.034 -0.1086 -1.3407  2.0042
 2597WAT    EPW11096   0.929   4.271   0.063  0.2042 -0.4149 -0.1545
 2598WAT      O11097   5.375   3.536   6.807  0.4669 -0.0175 -0.0995
 2598WAT     H111098   5.417   3.496   6.872  2.3122  0.9963 -0.6080
 2598WAT     H211099   5.430   3.600   6.783 -2.1711  2.7026  0.5073
 2598WAT    EPW11100   5.389   3.539   6.813 -0.2414  0.1681 -0.4329
 2599WAT      O11101   3.036   3.975   7.440  0.2867  0.0764  0.4382
 2599WAT     H111102   2.988   3.918   7.395  0.2697  0.5262 -0.1304
 2599WAT     H211103   3.040   3.940   7.520 -1.1299  0.1124  0.5514
 2599WAT    EPW11104   3.030   3.962   7.445 -0.4039 -0.0490  0.0594
 2600WAT      O11105   0.813   1.244   6.616  0.3701 -0.3231 -0.7426
 2600WAT     H111106   0.880   1.284   6.655  0.3461 -0.1783 -0.8480
 2600WAT     H211107   0.836   1.243   6.532 -0.8631  2.0304 -1.2101
 2600WAT    EPW11108   0.826   1.250   6.609 -0.1055 -0.2118  0.1533
 2601WAT      O11109   2.202   5.406   6.647 -0.0725  0.3198  0.0074
 2601WAT     H111110   2.182   5.370   6.725  0.3199  0.3338  0.1161
 2601WAT     H211111   2.195   5.339   6.592 -2.6356  0.7829 -0.3352
 2601WAT    EPW11112   2.198   5.390   6.651  0.2086  0.1266 -0.8098
 2602WAT      O11113   4.366   7.459   0.110  0.0282 -0.1344  0.1506
 2602WAT     H111114   4.393   7.432   0.189 -0.4315  0.7054  0.6093
 2602WAT     H211115   4.332   7.537   0.126  1.0232  0.5870 -1.0787
 2602WAT    EPW11116   4.365   7.466   0.124  0.1477  0.5151  0.2910
 2603WAT      O11117   6.380   2.631   5.399 -0.3724  0.0645 -0.8246
 2603WAT     H111118   6.397   2.554   5.362  1.7461  0.0117  0.1030
 2603WAT     H211119   6.396   2.689   5.336 -0.7276 -0.1918 -1.1526
 2603WAT    EPW11120   6.385   2.628   5.384 -0.9947 -0.3184 -0.2120
 2604WAT      O11121   4.420   1.226   6.474  0.5831  0.0067  0.5231
 2604WAT     H111122   4.428   1.313   6.477  2.0059 -0.1077  0.9255
 2604WAT     H211123   4.472   1.204   6.407 -0.6427 -0.4694 -0.3011
 2604WAT    EPW11124   4.429   1.236   6.464  0.0559 -0.2465  0.3423
 2605WAT      O11125   6.563   4.445   1.295  0.0631 -0.0443  0.3732
 2605WAT     H111126   6.621   4.415   1.353  1.2614  1.1494 -0.1405
 2605WAT     H211127   6.598   4.423   1.218 -1.2914 -1.2247  0.0613
 2605WAT    EPW11128   6.577   4.437   1.292  0.2375 -0.4756 -0.1139
 2606WAT      O11129   3.946  -0.006   6.865 -0.2221 -0.2275  0.4656
 2606WAT     H111130   3.860   0.010   6.855 -0.1229  0.6293  0.9030
 2606WAT     H211131   3.984   0.061   6.824  0.2408 -0.4036  0.6000
 2606WAT    EPW11132   3.939   0.006   6.857  0.3494 -0.0689 -0.8630
 2607WAT      O11133   4.650   2.957   3.834  0.4703  0.3766  0.1444
 2607WAT     H111134   4.614   2.948   3.755 -1.9043  2.2468  0.8576
 2607WAT     H211135   4.709   3.021   3.823  0.0266  0.7493 -0.1170
 2607WAT    EPW11136   4.653   2.965   3.821 -0.2987  0.1444  0.4364
 2608WAT      O11137   6.214   2.842   7.201  0.3739 -0.2564  0.0930
 2608WAT     H111138   6.147   2.786   7.202 -2.1790  2.4581  1.9893
 2608WAT     H211139   6.260   2.821   7.272 -2.1666  1.4452  2.5047
 2608WAT    EPW11140   6.211   2.831   7.212  0.2577 -0.0626 -0.1280
 2609WAT      O11141   5.372   4.686   1.684 -0.2102 -0.3290 -0.6369
 2609WAT     H111142   5.418   4.619   1.651 -2.3174 -2.4493  0.4197
 2609WAT     H211143   5.318   4.708   1.619 -0.4907 -0.6489 -0.5152
 2609WAT    EPW11144   5.371   4.679   1.669  0.2536  0.2870  0.3515
 2610WAT      O11145   5.243   6.160   7.173  0.1276 -0.5830 -0.2710
 2610WAT     H111146   5.318   6.173   7.130 -0.5145 -0.7416 -1.5051
 2610WAT     H211147   5.251   6.078   7.203  0.9474 -0.1636  0.7010
 2610WAT    EPW11148   5.256   6.150   7.171 -0.2524  1.2939  0.3935
 2611WAT      O11149   2.041   2.887   6.159 -0.0140  0.1417  0.2527
 2611WAT     H111150   2.023   2.810   6.197  0.9324 -0.1018  0.2338
 2611WAT     H211151   2.087   2.929   6.220 -1.2465  1.0644  0.5978
 2611WAT    EPW11152   2.045   2.882   6.174 -0.3408  0.1058 -0.2172
 2612WAT      O11153   5.326   1.040   6.399  0.1136  0.0188 -0.9628
 2612WAT     H111154   5.292   1.116   6.423 -0.8979 -0.3921 -1.0748
 2612WAT     H211155   5.374   1.017   6.468  1.0362  1.0944 -1.2138
 2612WAT    EPW11156   5.328   1.048   6.413  0.6552 -0.1157  0.1807
 2613WAT      O11157   3.136   3.018   1.961  0.2814  1.0453  0.1213
 2613WAT     H111158   3.194   2.953   1.963 -0.5882  0.2469  1.5855
 2613WAT     H211159   3.179   3.084   1.923  1.6127  0.0135 -0.2243
 2613WAT    EPW11160   3.151   3.018   1.956 -0.2722 -0.1309  0.1375
 2614WAT      O11161   1.722   4.436   5.175  0.1235 -0.3075 -0.1501
 2614WAT     H111162   1.695   4.501   5.124 -0.1970  1.1984  1.8201
 2614WAT     H211163   1.656   4.379   5.173 -0.7113  0.6334  0.0868
 2614WAT    EPW11164   1.708   4.437   5.167  0.1057 -0.2712  0.5296
 2615WAT      O11165   2.247   6.120   3.816 -0.1815  0.3808 -0.0551
 2615WAT     H111166   2.254   6.204   3.793  3.2299  0.0655 -0.7058
 2615WAT     H211167   2.275   6.119   3.899  0.2652 -0.1638 -0.2086
 2615WAT    EPW11168   2.252   6.132   3.825  0.2736  0.1327  0.1471
 2616WAT      O11169   1.456   3.072   4.542  0.2370 -0.5124 -1.0665
 2616WAT     H111170   1.527   3.067   4.491  0.7787 -0.3343 -0.3570
 2616WAT     H211171   1.420   3.148   4.520  1.5892  0.5725  0.1737
 2616WAT    EPW11172   1.461   3.083   4.531 -0.1823  0.2700  0.3901
 2617WAT      O11173   2.478   5.586   3.923  0.0792  0.2358  0.1642
 2617WAT     H111174   2.497   5.538   3.993 -1.2713 -0.9775 -0.2644
 2617WAT     H211175   2.537   5.561   3.864  0.7925  0.7700  0.6255
 2617WAT    EPW11176   2.490   5.575   3.925 -0.2129  0.6420  0.1803
 2618WAT      O11177   6.274   2.576   3.985  0.0548  0.0239 -0.2106
 2618WAT     H111178   6.221   2.640   3.960 -0.1818 -0.2435 -0.3978
 2618WAT     H211179   6.329   2.567   3.918 -0.4044 -0.5008 -0.5276
 2618WAT    EPW11180   6.274   2.584   3.971 -0.0049 -0.4434  0.1689
 2619WAT      O11181   6.304   4.587   2.676 -0.5951 -0.1879  0.4378
 2619WAT     H111182   6.306   4.672   2.693  1.3186  0.2130 -1.3549
 2619WAT     H211183   6.353   4.552   2.739  0.6742  0.3838 -0.2052
 2619WAT    EPW11184   6.311   4.594   2.687  0.5381 -0.0708 -0.6482
 2620WAT      O11185   1.111   3.488   4.561  0.0083  0.2637 -0.1804
 2620WAT     H111186   1.030   3.486   4.593 -0.7634  1.1365 -1.9362
 2620WAT     H211187   1.160   3.507   4.631 -1.4560  1.0912  0.6784
 2620WAT    EPW11188   1.107   3.491   4.576  0.0435 -0.1858 -0.0169
 2621WAT      O11189   5.585   0.574   5.546 -0.5358  0.1290  0.1772
 2621WAT     H111190   5.514   0.541   5.507 -2.1999  0.9519  2.2688
 2621WAT     H211191   5.559   0.653   5.572 -0.1952 -0.8377  4.1573
 2621WAT    EPW11192   5.571   0.580   5.544 -0.0454 -0.2695  0.5408
 2622WAT      O11193   5.305   1.234   4.033  0.3450  0.0058 -0.8177
 2622WAT     H111194   5.300   1.306   3.984  2.2948  0.3704 -0.5504
 2622WAT     H211195   5.357   1.181   3.986  1.1301 -0.1552  0.2076
 2622WAT    EPW11196   5.312   1.237   4.019  0.1741  0.0297 -0.5033
 2623WAT      O11197   7.225   6.619   0.070  0.3309 -0.1150  0.4407
 2623WAT     H111198   7.263   6.694   0.046 -1.2258  2.1986  4.3192
 2623WAT     H211199   7.272   6.593   0.139 -0.9473 -1.0538  1.0000
 2623WAT    EPW11200   7.238   6.626   0.077  0.1866 -0.4436  0.7150
 2624WAT      O11201   1.736   5.876   1.604  0.2378  0.5056  0.3990
 2624WAT     H111202   1.786   5.928   1.555  0.9187  0.8140  1.3985
 2624WAT     H211203   1.783   5.865   1.677  0.0231 -1.3341  0.3002
 2624WAT    EPW11204   1.750   5.882   1.607 -0.0752 -0.4216  0.1032
 2625WAT      O11205   4.221   0.448   6.824 -0.0206 -0.1698 -0.3870
 2625WAT     H111206   4.157   0.438   6.882  0.5399 -2.1315 -0.0325
 2625WAT     H211207   4.178   0.455   6.748 -0.7144 -2.9788 -0.3577
 2625WAT    EPW11208   4.205   0.447   6.821 -0.0921 -0.5048 -0.1647
 2626WAT      O11209   1.981   5.339   1.168  0.5102  0.3428  0.8498
 2626WAT     H111210   1.948   5.415   1.194  3.6862  2.5156 -0.8069
 2626WAT     H211211   1.978   5.344   1.081 -0.5107 -2.1453  0.6597
 2626WAT    EPW11212   1.976   5.351   1.159  0.3862  0.0090  0.0439
 2627WAT      O11213   1.362   3.495   1.211  0.0398 -0.2667  0.0512
 2627WAT     H111214   1.288   3.451   1.204  0.4018 -0.7926 -0.6066
 2627WAT     H211215   1.423   3.437   1.187  0.5697  0.4268 -0.3366
 2627WAT    EPW11216   1.360   3.480   1.206  0.1725 -0.1170  0.0393
 2628WAT      O11217   2.825   1.233   6.450 -0.6341  0.6239  0.4280
 2628WAT     H111218   2.887   1.285   6.417  0.2610  0.6247  1.9957
 2628WAT     H211219   2.841   1.156   6.413  0.0935  0.7092  0.5497
 2628WAT    EPW11220   2.837   1.229   6.440 -0.4424  0.5381 -0.4166
 2629WAT      O11221   5.296   3.654   4.383  0.2499 -0.2150  0.6452
 2629WAT     H111222   5.321   3.679   4.463  0.9648  1.1558  0.0153
 2629WAT     H211223   5.341   3.581   4.370  0.6476 -0.0855  1.2331
 2629WAT    EPW11224   5.306   3.647   4.393 -0.0380 -0.0602 -0.1756
 2630WAT      O11225   1.569   0.647   2.411 -0.0295 -0.0286 -0.1389
 2630WAT     H111226   1.528   0.572   2.430  1.1157 -0.6418  0.0035
 2630WAT     H211227   1.637   0.621   2.363  1.1170  0.7709  0.9815
 2630WAT    EPW11228   1.573   0.632   2.407  0.1000  0.0288  0.1835
 2631WAT      O11229   4.593   4.814   3.974  0.0718 -0.2646 -0.2027
 2631WAT     H111230   4.526   4.847   3.929  0.0134  0.2170  0.2317
 2631WAT     H211231   4.555   4.787   4.048  0.0453 -1.6659 -0.6914
 2631WAT    EPW11232   4.577   4.815   3.978  0.1370 -0.4542 -0.1463
 2632WAT      O11233   7.105   0.996   1.910 -0.3709  0.0593  0.0573
 2632WAT     H111234   7.060   0.987   1.836 -0.1305 -0.2049 -0.0591
 2632WAT     H211235   7.108   1.082   1.922 -0.4604  0.1002 -0.2097
 2632WAT    EPW11236   7.099   1.008   1.900  0.3434  0.1917 -0.4457
 2633WAT      O11237   6.711   5.024   1.268  0.1902 -0.1666  0.0431
 2633WAT     H111238   6.697   5.045   1.351 -1.3199 -0.2316 -0.1669
 2633WAT     H211239   6.683   4.942   1.262 -0.1365 -0.0142 -0.6170
 2633WAT    EPW11240   6.705   5.015   1.279  0.6266  0.8607  0.6585
 2634WAT      O11241   1.235   0.246   1.461  0.0842 -0.1767 -0.1669
 2634WAT     H111242   1.227   0.241   1.548  1.2546 -0.9535 -0.0820
 2634WAT     H211243   1.157   0.220   1.432 -0.3835  0.2770  0.6472
 2634WAT    EPW11244   1.222   0.241   1.470 -0.1269 -0.1711  0.0995
 2635WAT      O11245   2.818   3.332   0.820 -0.0314 -0.4704 -0.1712
 2635WAT     H111246   2.831   3.389   0.755 -1.8998  0.1012 -0.0959
 2635WAT     H211247   2.824   3.254   0.780 -0.9950 -0.1360 -1.0423
 2635WAT    EPW11248   2.821   3.329   0.804  0.4752 -0.4372 -0.3196
 2636WAT      O11249   6.813   0.662   1.742 -0.5187 -0.1679  0.7008
 2636WAT     H111250   6.890   0.625   1.758  0.5281  2.2121  1.7351
 2636WAT     H211251   6.770   0.655   1.818 -0.4138  0.4170  0.8247
 2636WAT    EPW11252   6.818   0.656   1.756  0.4779  0.7117 -0.3523
 2637WAT      O11253   1.965   6.392   1.230  0.6374 -0.0663 -0.2694
 2637WAT     H111254   1.972   6.436   1.155  2.0236 -2.3245 -1.6103
 2637WAT     H211255   1.995   6.447   1.290  1.0400  1.2588 -1.6392
 2637WAT    EPW11256   1.971   6.406   1.228  0.2276 -0.0929  0.5282
 2638WAT      O11257   6.357   4.954   1.347 -0.0137  0.1872  0.6460
 2638WAT     H111258   6.419   4.950   1.407  0.4152 -0.9400  0.1662
 2638WAT     H211259   6.346   5.040   1.333 -0.1016  0.4563  2.2761
 2638WAT    EPW11260   6.364   4.966   1.354  0.2790  0.2958  0.3856
 2639WAT      O11261   6.295   2.801   3.630  0.2088 -0.8335 -0.6116
 2639WAT     H111262   6.343   2.759   3.689 -1.1455 -1.2476  0.2432
 2639WAT     H211263   6.220   2.757   3.629 -0.6329  0.5369 -0.9360
 2639WAT    EPW11264   6.291   2.789   3.638 -0.7323  0.5767  0.6449
 2640WAT      O11265   2.920   1.001   1.088  0.0074 -0.2161 -0.2017
 2640WAT     H111266   2.898   1.076   1.050  0.2340  0.6392  1.2616
 2640WAT     H211267   2.843   0.969   1.116 -0.1955 -0.9975 -1.5892
 2640WAT    EPW11268   2.905   1.007   1.087  0.0522  0.2377  0.2789
 2641WAT      O11269   6.536   4.258   3.950  0.1271 -0.3950  0.6717
 2641WAT     H111270   6.521   4.172   3.951 -0.4539 -0.3369 -0.5022
 2641WAT     H211271   6.617   4.264   3.918 -1.1280 -0.4836 -3.0762
 2641WAT    EPW11272   6.546   4.246   3.945 -0.9906  1.1130  0.4261
 2642WAT      O11273   7.644   2.812   3.685 -0.0057 -0.3974  0.5863
 2642WAT     H111274   7.599   2.758   3.634 -1.4365  2.1645 -1.0478
 2642WAT     H211275   7.593   2.823   3.755 -0.7468  0.4748 -0.0746
 2642WAT    EPW11276   7.630   2.805   3.688 -0.0667  0.8948  0.5100
 2643WAT      O11277   2.677   7.565   7.049 -0.0079  0.4524  0.3125
 2643WAT     H111278   2.757   7.585   7.020  0.1809 -0.4289  0.2091
 2643WAT     H211279   2.626   7.624   7.009  0.5369  0.7527  0.0473
 2643WAT    EPW11280   2.681   7.577   7.039 -0.4135 -0.1771  0.0043
 2644WAT      O11281   6.084   0.665   6.402 -0.1745  0.0673  0.0160
 2644WAT     H111282   6.138   0.605   6.435 -1.8449 -1.0741  0.8124
 2644WAT     H211283   6.118   0.682   6.323  1.6853 -0.0827  0.7420
 2644WAT    EPW11284   6.097   0.659   6.395  0.2389  0.1711 -0.7498
 2645WAT      O11285   3.689   1.337   6.598 -0.1996 -0.0311 -0.0828
 2645WAT     H111286   3.736   1.318   6.527 -0.3512  2.1223 -0.8435
 2645WAT     H211287   3.624   1.387   6.566 -1.1335 -0.2605  1.3839
 2645WAT    EPW11288   3.686   1.342   6.582 -0.4788 -0.6580 -0.0726
 2646WAT      O11289   2.563   6.279   5.138 -0.4153 -0.0797 -0.0282
 2646WAT     H111290   2.592   6.200   5.162 -1.9211 -0.6049  0.1338
 2646WAT     H211291   2.593   6.288   5.057  1.5063  0.0973  0.6404
 2646WAT    EPW11292   2.572   6.269   5.130 -0.7416  0.0917  0.6291
 2647WAT      O11293   0.687   7.333   0.638  1.1680 -0.1760 -0.3988
 2647WAT     H111294   0.731   7.378   0.578  0.5892  0.1490 -0.5922
 2647WAT     H211295   0.604   7.355   0.622  0.8290 -1.6180 -0.7499
 2647WAT    EPW11296   0.681   7.343   0.627  0.1648 -0.2984  0.5351
 2648WAT      O11297   3.615   6.206   7.282 -0.2068 -0.0340  0.6157
 2648WAT     H111298   3.627   6.225   7.366 -0.4453  2.3781  0.1774
 2648WAT     H211299   3.579   6.279   7.250 -1.3698 -1.3806 -1.3101
 2648WAT    EPW11300   3.611   6.220   7.290  0.2854 -0.2699  0.4356
 2649WAT      O11301   7.256   0.822   7.166 -0.4722 -0.2578  0.5342
 2649WAT     H111302   7.325   0.848   7.120 -0.5924  1.1449  1.0942
 2649WAT     H211303   7.196   0.884   7.150 -1.0923 -0.6622  1.2170
 2649WAT    EPW11304   7.257   0.835   7.156  0.5144 -0.0599  0.1234
 2650WAT      O11305   1.721   5.024   0.359  0.0261  0.0730  0.4826
 2650WAT     H111306   1.677   4.966   0.311 -1.0987  0.3902  1.0940
 2650WAT     H211307   1.717   5.097   0.311  1.5002 -0.3076 -0.3196
 2650WAT    EPW11308   1.714   5.026   0.345 -0.0788  0.3525  0.6463
 2651WAT      O11309   5.417   6.148   3.763 -0.6013 -0.9579 -0.1831
 2651WAT     H111310   5.345   6.124   3.808 -1.2156  0.8256 -0.1264
 2651WAT     H211311   5.463   6.194   3.821 -0.3924 -0.3882 -0.7869
 2651WAT    EPW11312   5.413   6.151   3.778 -0.3933  0.1688  0.2552
 2652WAT      O11313   3.713   7.235   0.887 -0.6584 -0.3438  0.4608
 2652WAT     H111314   3.789   7.215   0.849 -0.9803 -0.9823  0.1336
 2652WAT     H211315   3.725   7.317   0.915  0.6189 -0.8844  1.6076
 2652WAT    EPW11316   3.726   7.244   0.885 -0.1103  0.4963  0.4848
 2653WAT      O11317   1.286   3.848   6.733 -0.1523 -0.0496 -0.6246
 2653WAT     H111318   1.302   3.792   6.668  0.5135 -0.3967 -0.1772
 2653WAT     H211319   1.316   3.807   6.804  0.0738  0.7448 -0.2452
 2653WAT    EPW11320   1.293   3.834   6.734  0.6458 -0.1261 -0.0235
 2654WAT      O11321   6.470   1.199   6.356  0.0787 -0.1843 -0.2147
 2654WAT     H111322   6.450   1.114   6.355  2.1523 -0.7046 -0.9949
 2654WAT     H211323   6.520   1.208   6.426  0.5321  0.2290 -0.5826
 2654WAT    EPW11324   6.474   1.188   6.366  0.0728 -0.3609 -0.1230
 2655WAT      O11325   2.042   1.716   1.844 -0.0217 -0.3308  0.2014
 2655WAT     H111326   1.957   1.698   1.846  0.3640 -2.5823 -0.1842
 2655WAT     H211327   2.063   1.705   1.760  0.8123 -0.8732  0.4626
 2655WAT    EPW11328   2.033   1.712   1.832 -0.1779 -0.3590 -0.2004
 2656WAT      O11329   0.852   2.918   6.062 -0.4423  0.7267 -0.5718
 2656WAT     H111330   0.872   2.943   5.981  0.8896 -0.0316 -0.5037
 2656WAT     H211331   0.813   2.840   6.050  2.2261 -0.7540 -0.4028
 2656WAT    EPW11332   0.849   2.910   6.048  0.0581  0.1436  0.0226
 2657WAT      O11333   5.734   0.809   2.292 -0.4109  0.1691  0.1426
 2657WAT     H111334   5.804   0.821   2.241  0.1664  0.1604  0.9179
 2657WAT     H211335   5.702   0.890   2.302 -0.3535  0.2077  0.0128
 2657WAT    EPW11336   5.739   0.823   2.286 -0.2807  0.0152  0.7038
 2658WAT      O11337   0.244   5.229   4.894 -1.0135 -0.3146 -0.1634
 2658WAT     H111338   0.296   5.179   4.943 -1.3423  1.4729  2.2293
 2658WAT     H211339   0.292   5.300   4.879 -2.2418  0.8769  1.1085
 2658WAT    EPW11340   0.259   5.232   4.899 -0.1872  0.4922 -0.1487
 2659WAT      O11341   1.028   0.016   7.243 -0.3808  0.6365 -0.3982
 2659WAT     H111342   0.952   0.005   7.201 -0.4951  0.4141 -0.1397
 2659WAT     H211343   1.003   0.027   7.326 -0.1368  0.6964 -0.3330
 2659WAT    EPW11344   1.013   0.016   7.249  0.0090  0.0855 -0.0625
 2660WAT      O11345   6.719   2.106   4.175 -0.6133  1.1729  0.4229
 2660WAT     H111346   6.767   2.171   4.208 -1.4829  0.3551  3.6141
 2660WAT     H211347   6.777   2.044   4.157 -0.2140  0.6608  3.0682
 2660WAT    EPW11348   6.734   2.106   4.177 -0.0692  0.3695  0.4671
 2661WAT      O11349   2.610   3.429   2.979  0.0074  0.2140 -0.6010
 2661WAT     H111350   2.624   3.508   3.013 -0.8116 -0.2966  1.0277
 2661WAT     H211351   2.656   3.376   3.031 -0.7599 -0.5299 -0.6611
 2661WAT    EPW11352   2.619   3.433   2.992 -0.5439 -0.4900 -0.5695
 2662WAT      O11353   5.570   7.354   4.266  0.2722 -0.7407  0.0534
 2662WAT     H111354   5.627   7.419   4.269  0.5683 -1.0491  1.8854
 2662WAT     H211355   5.611   7.289   4.307 -0.2428 -1.9213 -1.2258
 2662WAT    EPW11356   5.585   7.354   4.272 -0.1323  0.2021 -0.4024
 2663WAT      O11357   4.458   4.096   6.903  0.0223  0.4155 -0.4183
 2663WAT     H111358   4.463   4.027   6.850  0.6551 -1.7732  2.2258
 2663WAT     H211359   4.541   4.123   6.909  0.1480 -0.1032  0.3163
 2663WAT    EPW11360   4.471   4.090   6.896 -0.1844  0.4828  0.8093
 2664WAT      O11361   5.260   2.500   6.432 -0.0504  0.0405 -0.4514
 2664WAT     H111362   5.196   2.456   6.391  0.5499 -0.0964 -1.2628
 2664WAT     H211363   5.238   2.584   6.420  0.2076  0.0060 -1.2121
 2664WAT    EPW11364   5.247   2.506   6.424 -0.1270 -0.1397 -0.2116
 2665WAT      O11365   6.610   5.928   4.725 -0.2135  0.1225 -0.6002
 2665WAT     H111366   6.535   5.925   4.681 -1.0494  2.3578  0.4963
 2665WAT     H211367   6.593   5.884   4.798  0.4809 -1.7081 -1.4784
 2665WAT    EPW11368   6.597   5.921   4.729 -0.2841  0.0702 -0.5242
 2666WAT      O11369   6.925   3.122   6.178  0.0316 -0.4278 -0.4292
 2666WAT     H111370   6.984   3.185   6.163 -0.6076  0.7576  1.6482
 2666WAT     H211371   6.849   3.159   6.156 -0.3570 -0.4338  0.8277
 2666WAT    EPW11372   6.923   3.137   6.173  0.0357 -0.1084  0.6908
 2667WAT      O11373   5.331   2.145   0.021 -0.2169 -0.4290  0.4559
 2667WAT     H111374   5.262   2.096   0.038  0.6978 -1.4637  1.3330
 2667WAT     H211375   5.330   2.153  -0.066 -1.9651  0.4269  0.5220
 2667WAT    EPW11376   5.321   2.139   0.011 -0.1249  0.0170 -0.0388
 2668WAT      O11377   0.145   1.004   4.101 -0.2307 -0.3891 -0.1315
 2668WAT     H111378   0.180   1.004   4.181 -0.0385  0.8059 -0.2051
 2668WAT     H211379   0.067   0.968   4.113  0.3304 -1.5187  0.3338
 2668WAT    EPW11380   0.139   0.999   4.114  0.2001  0.1851 -0.1362
 2669WAT      O11381   1.792   4.522   3.887 -0.2288 -0.2587 -0.2735
 2669WAT     H111382   1.825   4.445   3.864  0.2283  0.1650 -1.1098
 2669WAT     H211383   1.861   4.576   3.884 -0.8921  0.5813 -1.7283
 2669WAT    EPW11384   1.807   4.519   3.883  1.0366 -0.2130  0.5504
 2670WAT      O11385   2.933   3.973   5.954 -0.3786 -0.2589  0.5043
 2670WAT     H111386   2.993   3.986   5.892  0.4751  2.2493  1.7007
 2670WAT     H211387   2.979   3.977   6.028 -1.9882  2.7454  1.5350
 2670WAT    EPW11388   2.948   3.976   5.956  0.2613 -0.1237 -0.2264
 2671WAT      O11389   0.559   6.486   6.544  0.3729  0.2057  0.4237
 2671WAT     H111390   0.491   6.542   6.541  0.8341  0.8322  1.2931
 2671WAT     H211391   0.584   6.489   6.627  0.8410 -0.8041  0.3318
 2671WAT    EPW11392   0.552   6.495   6.556 -0.1156 -0.2100 -0.2646
 2672WAT      O11393   5.405   3.029   2.422 -0.0616  0.0809 -0.1571
 2672WAT     H111394   5.380   2.949   2.444  0.8804 -0.3571 -0.6424
 2672WAT     H211395   5.416   3.025   2.336  2.4872 -0.0375  0.0874
 2672WAT    EPW11396   5.403   3.017   2.413  0.2579  0.2550 -0.5998
 2673WAT      O11397   1.802   4.849   0.689 -0.5227  0.7304 -0.2263
 2673WAT     H111398   1.817   4.929   0.658  0.7055  0.5315 -0.1854
 2673WAT     H211399   1.832   4.797   0.626 -1.2136  0.2871 -0.2038
 2673WAT    EPW11400   1.809   4.853   0.675  0.4272  0.2159 -0.1170
 2674WAT      O11401   0.311   4.468   4.610 -0.1009 -0.1004 -0.2284
 2674WAT     H111402   0.326   4.549   4.582  1.1866  0.1913  1.1805
 2674WAT     H211403   0.233   4.473   4.648  0.0157  0.5235 -0.0608
 2674WAT    EPW11404   0.302   4.481   4.611 -0.3225  0.2375  0.3468
 2675WAT      O11405   1.991   3.296   0.684  0.0283  0.3537 -0.0840
 2675WAT     H111406   1.988   3.296   0.771  0.4553  1.7276 -0.0512
 2675WAT     H211407   1.907   3.296   0.660 -0.1289 -2.0389  0.2679
 2675WAT    EPW11408   1.978   3.296   0.693  0.3252 -0.2348  0.1848
 2676WAT      O11409   5.654   6.236   2.396 -0.2016 -0.3849  0.4187
 2676WAT     H111410   5.581   6.238   2.444 -1.0140  0.8916 -0.8044
 2676WAT     H211411   5.629   6.269   2.319  1.4019 -1.0171 -0.4110
 2676WAT    EPW11412   5.639   6.241   2.392  0.1991 -0.3434 -0.3476
 2677WAT      O11413   0.142   5.087   2.642 -0.3595  0.1860  0.1502
 2677WAT     H111414   0.137   5.149   2.703 -0.0291 -0.4770  0.8713
 2677WAT     H211415   0.219   5.049   2.657 -0.1325  0.2029 -0.8817
 2677WAT    EPW11416   0.152   5.090   2.653  0.7047 -0.4030 -0.2113
 2678WAT      O11417   3.269   1.136   3.847  0.1728  0.6191 -0.4590
 2678WAT     H111418   3.226   1.212   3.844 -0.7092  0.1910  0.6859
 2678WAT     H211419   3.340   1.151   3.798 -0.5667  1.7967 -1.2044
 2678WAT    EPW11420   3.273   1.150   3.839  0.4406  0.1770  0.1940
 2679WAT      O11421   3.923   0.788   0.691  0.2217 -0.1783 -0.3644
 2679WAT     H111422   3.950   0.849   0.635  0.1340  1.1360  0.9928
 2679WAT     H211423   3.924   0.828   0.768 -2.4440 -1.0679  0.2384
 2679WAT    EPW11424   3.927   0.803   0.694 -0.2478  0.3214  0.2134
 2680WAT      O11425   5.651   2.502   3.815 -0.1230 -0.1601  0.0843
 2680WAT     H111426   5.699   2.557   3.767  0.0495 -1.1113 -0.8527
 2680WAT     H211427   5.586   2.479   3.762 -1.1721  0.4327  1.0491
 2680WAT    EPW11428   5.649   2.507   3.800 -0.2113 -0.6540  0.5422
 2681WAT      O11429   7.536   3.223   1.675 -0.7961 -0.0110  0.2445
 2681WAT     H111430   7.549   3.294   1.626 -2.0524 -0.0958 -0.2495
 2681WAT     H211431   7.460   3.192   1.647 -0.6275 -1.1533  0.9575
 2681WAT    EPW11432   7.527   3.229   1.664 -0.3071  0.1280 -0.2154
 2682WAT      O11433   0.849   6.801   1.149 -0.4672  0.2046 -0.1703
 2682WAT     H111434   0.764   6.818   1.141 -0.7873 -0.0170  2.1317
 2682WAT     H211435   0.885   6.849   1.085 -2.1784  1.4154 -0.3130
 2682WAT    EPW11436   0.842   6.810   1.138 -0.0506  0.0167 -0.3861
 2683WAT      O11437   3.205   0.474   6.582  0.2483 -0.5494 -0.2668
 2683WAT     H111438   3.122   0.451   6.583  0.3571 -0.9697 -0.8468
 2683WAT     H211439   3.233   0.452   6.662 -0.3197  0.0801  0.1140
 2683WAT    EPW11440   3.197   0.468   6.594  0.2933 -0.2105 -0.4690
 2684WAT      O11441   0.690   6.556   0.220  0.4129 -0.9422  0.0590
 2684WAT     H111442   0.746   6.491   0.235  0.9089 -0.6981 -0.6678
 2684WAT     H211443   0.645   6.529   0.150 -0.8186 -1.4038  0.9881
 2684WAT    EPW11444   0.692   6.543   0.212 -0.3858 -0.1303 -0.4926
 2685WAT      O11445   2.689   6.288   4.887 -0.5612  0.2530 -0.3646
 2685WAT     H111446   2.757   6.341   4.881 -0.4764  0.2831  0.6952
 2685WAT     H211447   2.721   6.210   4.862  0.4612 -0.2054  2.0970
 2685WAT    EPW11448   2.704   6.284   4.883  0.2481  0.4598  0.6208
 2686WAT      O11449   4.651   0.082   1.397  0.6139  0.2161  0.0119
 2686WAT     H111450   4.600   0.095   1.327  0.8809 -0.7394 -0.3737
 2686WAT     H211451   4.671  -0.003   1.392 -2.2061 -0.8494  3.1675
 2686WAT    EPW11452   4.646   0.071   1.386 -0.2212  0.0928 -0.0881
 2687WAT      O11453   7.315   1.887   6.596 -0.3513  0.1076 -0.7862
 2687WAT     H111454   7.294   1.814   6.638  0.2736  0.1471 -0.3962
 2687WAT     H211455   7.385   1.865   6.549 -1.2165 -0.0202 -2.0713
 2687WAT    EPW11456   7.322   1.873   6.595  0.0979  0.2648 -0.2941
 2688WAT      O11457   7.521   0.613   6.934 -0.4626 -0.5293  0.1942
 2688WAT     H111458   7.555   0.598   7.013 -0.4832  0.4083  0.3893
 2688WAT     H211459   7.440   0.581   6.940 -0.8294  0.4837  0.9107
 2688WAT    EPW11460   7.514   0.606   6.946 -0.1066  0.6134 -0.0314
 2689WAT      O11461   4.627   0.749   5.869 -0.2943 -0.0655  0.4172
 2689WAT     H111462   4.681   0.683   5.851 -1.3207 -1.0819  0.9330
 2689WAT     H211463   4.600   0.776   5.791 -1.0618 -1.2991  0.2368
 2689WAT    EPW11464   4.631   0.744   5.855 -0.4280 -0.2120  0.0418
 2690WAT      O11465   6.682   3.234   3.483 -0.1509  0.2294 -0.1026
 2690WAT     H111466   6.727   3.274   3.547  0.9279 -0.9736 -0.0744
 2690WAT     H211467   6.704   3.150   3.491  0.0205  0.0419 -2.0644
 2690WAT    EPW11468   6.692   3.228   3.494 -0.6505 -0.0088 -0.0230
 2691WAT      O11469   6.746   4.136   2.292 -0.1352 -0.0966  0.0320
 2691WAT     H111470   6.818   4.185   2.301 -1.0663  1.0403  1.8287
 2691WAT     H211471   6.756   4.100   2.213  1.8870  0.8514 -0.2190
 2691WAT    EPW11472   6.758   4.138   2.282 -0.1550 -0.2422  0.6044
 2692WAT      O11473   3.096   4.788   6.781 -0.2854 -0.3505 -0.0888
 2692WAT     H111474   3.113   4.808   6.865 -1.1047 -0.7920  0.1957
 2692WAT     H211475   3.172   4.802   6.741  0.6495 -1.8088  1.0358
 2692WAT    EPW11476   3.110   4.793   6.788  0.2370  0.5341  0.5368
 2693WAT      O11477   5.979   4.822   4.152 -0.0762 -0.0511 -0.2717
 2693WAT     H111478   6.026   4.752   4.176  0.0611  0.2986  0.4905
 2693WAT     H211479   5.978   4.872   4.223 -0.3588  0.6303 -0.7435
 2693WAT    EPW11480   5.986   4.819   4.166 -0.2176 -0.8295 -0.5551
 2694WAT      O11481   4.632   2.848   6.199 -0.1586 -0.2857 -0.3649
 2694WAT     H111482   4.658   2.853   6.116  1.3591 -2.0290 -0.0542
 2694WAT     H211483   4.570   2.787   6.198  0.6614 -1.1543 -0.0900
 2694WAT    EPW11484   4.627   2.840   6.187  0.9064 -0.5326  0.5864
 2695WAT      O11485   3.962   5.459   7.087  0.2677  0.5120 -0.2977
 2695WAT     H111486   3.926   5.419   7.156  0.5240 -0.5378 -0.7463
 2695WAT     H211487   3.925   5.418   7.019 -2.5055  3.6547 -0.9380
 2695WAT    EPW11488   3.951   5.447   7.087 -0.3985  0.8953 -0.6720
 2696WAT      O11489   1.304   0.184   3.975  0.4923  0.2918  0.5297
 2696WAT     H111490   1.234   0.146   4.012  1.3033 -1.1836  0.5874
 2696WAT     H211491   1.366   0.175   4.035  0.7184  1.8248  0.5846
 2696WAT    EPW11492   1.303   0.177   3.990 -0.6374 -0.0743 -0.5651
 2697WAT      O11493   3.359   5.844   4.958  0.1383  0.6434  0.2927
 2697WAT     H111494   3.411   5.859   5.027 -3.6556 -0.0982  3.6558
 2697WAT     H211495   3.346   5.758   4.960 -0.7118  0.7197 -0.8620
 2697WAT    EPW11496   3.365   5.834   4.968 -0.3194  0.0747  0.4925
 2698WAT      O11497   4.874   2.613   4.766 -0.0655 -0.8111  0.5178
 2698WAT     H111498   4.829   2.646   4.833  1.6729  1.4975  0.6882
 2698WAT     H211499   4.860   2.527   4.772 -2.2812 -0.4221  2.0639
 2698WAT    EPW11500   4.865   2.605   4.777  0.1381  0.5152 -0.2483
 2699WAT      O11501   6.035   2.735   6.853  0.2091  0.2576  0.2487
 2699WAT     H111502   6.100   2.713   6.907  0.1179  0.3746  0.4062
 2699WAT     H211503   5.997   2.803   6.893  1.4598  1.7384 -0.9872
 2699WAT    EPW11504   6.039   2.741   6.867  0.4317 -0.5484 -0.4016
 2700WAT      O11505   7.650   0.631   6.700  0.1507  0.2529 -0.1953
 2700WAT     H111506   7.648   0.555   6.658  1.2859  0.2146 -0.2247
 2700WAT     H211507   7.611   0.614   6.776  1.3865 -0.6841  0.2660
 2700WAT    EPW11508   7.644   0.617   6.705  0.1945 -0.4145  0.1013
 2701WAT      O11509   1.008   6.741   7.041 -0.0910 -0.2412 -0.3046
 2701WAT     H111510   1.062   6.753   6.974 -0.7516 -0.8239 -0.9589
 2701WAT     H211511   1.027   6.660   7.068 -0.6626 -0.4787 -0.5841
 2701WAT    EPW11512   1.019   6.730   7.035  0.0082  0.0920 -0.7491
 2702WAT      O11513   5.796   6.597   6.196 -0.2558  0.3740  0.0346
 2702WAT     H111514   5.784   6.570   6.278 -0.6094  0.7667  0.1124
 2702WAT     H211515   5.719   6.583   6.158 -0.2582  0.7031 -0.0876
 2702WAT    EPW11516   5.783   6.591   6.203  0.3056 -0.5618 -0.4724
 2703WAT      O11517   6.231   6.742   3.597 -0.2634  0.2323 -0.1858
 2703WAT     H111518   6.226   6.729   3.511 -2.1477 -0.2840 -0.0245
 2703WAT     H211519   6.248   6.828   3.603 -1.4072  0.5415 -1.0673
 2703WAT    EPW11520   6.233   6.753   3.585 -0.3685  0.3531  0.0988
 2704WAT      O11521   6.028   0.096   7.526  0.2002  0.3342  0.6085
 2704WAT     H111522   6.037   0.043   7.595 -0.8751 -0.9240 -0.1844
 2704WAT     H211523   6.027   0.042   7.458  4.7184  1.6869 -0.8906
 2704WAT    EPW11524   6.030   0.080   7.526 -0.1272 -0.3027  0.5013
 2705WAT      O11525   6.227   1.920   1.657  0.3745 -1.0012  0.2443
 2705WAT     H111526   6.160   1.943   1.708  1.0903 -3.7427  2.7199
 2705WAT     H211527   6.229   1.982   1.596 -1.3700  1.8856  2.8298
 2705WAT    EPW11528   6.217   1.933   1.656 -0.0843  0.0315 -0.2740
 2706WAT      O11529   1.841   3.385   4.211  0.5467  0.2194  0.3349
 2706WAT     H111530   1.837   3.395   4.125 -2.3755  0.4063  0.3909
 2706WAT     H211531   1.926   3.386   4.228  1.1638  1.8451 -2.3394
 2706WAT    EPW11532   1.853   3.386   4.201  0.0005  0.8124  0.1655
 2707WAT      O11533   5.242   5.520   1.804  0.3826  0.0448  0.0615
 2707WAT     H111534   5.273   5.526   1.885  0.3298 -2.4985  0.3453
 2707WAT     H211535   5.178   5.461   1.811 -0.6108  0.8387 -1.5993
 2707WAT    EPW11536   5.237   5.512   1.817  0.2000 -0.4780  0.1271
 2708WAT      O11537   1.943   1.229   6.801  0.6038  0.0501 -0.6631
 2708WAT     H111538   1.952   1.238   6.715  0.1349 -0.9517 -0.8345
 2708WAT     H211539   2.003   1.283   6.834 -0.4410  1.8809 -1.5793
 2708WAT    EPW11540   1.953   1.238   6.793 -0.0027 -0.3531 -0.9169
 2709WAT      O11541   2.842   4.222   6.113  0.0131 -0.1274  0.6005
 2709WAT     H111542   2.770   4.178   6.136  0.6938 -1.7696 -0.2134
 2709WAT     H211543   2.891   4.161   6.074  1.6561  1.0529  0.7272
 2709WAT    EPW11544   2.838   4.206   6.111 -0.2521 -0.4846 -0.3924
 2710WAT      O11545   1.264   4.464   6.792  0.4857  0.2389 -0.3276
 2710WAT     H111546   1.236   4.531   6.839  0.7704  1.1624 -1.4295
 2710WAT     H211547   1.334   4.435   6.836 -0.7850 -0.6396  1.2174
 2710WAT    EPW11548   1.270   4.469   6.805 -0.6573 -0.0526 -0.3217
 2711WAT      O11549   2.800   1.553   7.119  0.4250 -0.4837  0.3556
 2711WAT     H111550   2.781   1.636   7.139 -1.7695 -1.0812  0.9731
 2711WAT     H211551   2.849   1.527   7.186 -1.1675 -0.4379  1.6059
 2711WAT    EPW11552   2.804   1.562   7.132 -0.0254 -0.4025  0.0033
 2712WAT      O11553   0.095   3.754   1.161 -0.0615  0.4189  0.3010
 2712WAT     H111554   0.114   3.834   1.187 -0.4664  0.2482  1.1426
 2712WAT     H211555   0.025   3.733   1.208 -0.9428  0.1748 -1.0693
 2712WAT    EPW11556   0.087   3.762   1.172 -0.2223 -0.2298  0.4675
 2713WAT      O11557   4.923   6.832   3.150 -0.0897 -0.1862 -0.0784
 2713WAT     H111558   5.006   6.837   3.123  1.3270 -3.1079  3.0834
 2713WAT     H211559   4.929   6.800   3.230 -4.3896 -1.3322  0.0271
 2713WAT    EPW11560   4.936   6.828   3.158 -0.1751  0.5144 -0.1159
 2714WAT      O11561   5.104   5.699   3.598  0.3291  0.0041 -0.5462
 2714WAT     H111562   5.076   5.616   3.603  1.1271 -0.2154  1.1008
 2714WAT     H211563   5.186   5.694   3.629 -0.4926  1.7701  2.2331
 2714WAT    EPW11564   5.112   5.686   3.604  0.2912 -0.1625 -0.1766
 2715WAT      O11565   3.239   2.851   0.246 -0.0067  0.2653  0.3034
 2715WAT     H111566   3.198   2.795   0.194  0.2505  0.3928 -0.0378
 2715WAT     H211567   3.232   2.927   0.205  3.7606 -0.2334 -1.7666
 2715WAT    EPW11568   3.232   2.854   0.232 -0.0658  0.1328 -0.1075
 2716WAT      O11569   6.542   1.773   5.423  0.4506  0.5025 -0.4637
 2716WAT     H111570   6.573   1.822   5.358  0.4030 -1.4848 -2.0873
 2716WAT     H211571   6.456   1.770   5.408  0.7279 -2.3844 -2.2375
 2716WAT    EPW11572   6.534   1.779   5.411  0.0999  0.0573  0.8897
 2717WAT      O11573   7.156   0.252   3.616 -0.3387 -0.1872 -0.2547
 2717WAT     H111574   7.204   0.194   3.660 -0.3843 -0.5645 -0.7009
 2717WAT     H211575   7.096   0.204   3.577 -1.5457  0.3487  0.8579
 2717WAT    EPW11576   7.154   0.237   3.617  0.1034  0.3163 -0.1742
 2718WAT      O11577   5.040   7.363   1.387  0.2375  0.0346  0.0431
 2718WAT     H111578   5.069   7.445   1.378 -1.3353  0.7207  0.8239
 2718WAT     H211579   5.058   7.344   1.471  0.2308 -0.2755 -0.0238
 2718WAT    EPW11580   5.047   7.372   1.398  0.2955  0.1365 -0.0323
 2719WAT      O11581   3.264   1.527   7.601 -0.7983  0.2769  0.3583
 2719WAT     H111582   3.188   1.491   7.622 -0.5474 -0.6805 -0.2988
 2719WAT     H211583   3.276   1.503   7.518  1.0393 -1.1120  0.9533
 2719WAT    EPW11584   3.255   1.518   7.591  0.4254  0.0871 -0.1701
 2720WAT      O11585   0.061   3.878   1.502 -0.0865 -0.0207 -0.2942
 2720WAT     H111586   0.039   3.960   1.481  0.3427  0.5801  1.4450
 2720WAT     H211587   0.103   3.849   1.431 -1.7573  0.6240 -1.6167
 2720WAT    EPW11588   0.064   3.886   1.489  0.1065 -1.0355 -0.0004
 2721WAT      O11589   3.348   4.441   3.372  0.1841 -0.1002 -0.0659
 2721WAT     H111590   3.279   4.392   3.394 -0.8113  1.0138 -0.5989
 2721WAT     H211591   3.411   4.382   3.358 -0.1773 -1.0722  1.9716
 2721WAT    EPW11592   3.347   4.425   3.373 -0.3105  0.0808 -0.3813
 2722WAT      O11593   3.327   2.052   3.053  0.0624 -0.2603 -0.1218
 2722WAT     H111594   3.244   2.031   3.072  0.4922 -1.0713  1.0014
 2722WAT     H211595   3.321   2.098   2.979 -1.3745 -0.4079 -0.1174
 2722WAT    EPW11596   3.314   2.056   3.045 -0.1149  0.3338 -0.0549
 2723WAT      O11597   0.478   7.250   3.321  0.1192  0.4744  0.3519
 2723WAT     H111598   0.500   7.200   3.254  1.1422  1.0284  0.2523
 2723WAT     H211599   0.422   7.201   3.366 -1.2151  0.3815 -1.3019
 2723WAT    EPW11600   0.473   7.236   3.318  0.1884  0.7084  0.3336
 2724WAT      O11601   4.689   6.130   3.825 -0.4194  0.1967 -0.2679
 2724WAT     H111602   4.614   6.128   3.779 -0.6466  1.4555  0.0158
 2724WAT     H211603   4.750   6.115   3.765 -0.9666 -3.7144 -0.1183
 2724WAT    EPW11604   4.687   6.127   3.810  0.1068  0.2191  0.1285
 2725WAT      O11605   5.096   3.431   7.285  0.4050  0.6480  0.0123
 2725WAT     H111606   5.026   3.387   7.311  1.2351 -0.6487  0.1612
 2725WAT     H211607   5.085   3.439   7.199  0.6268 -0.6447 -0.1637
 2725WAT    EPW11608   5.084   3.426   7.276  0.1596 -0.5967 -0.2364
 2726WAT      O11609   3.079   7.217   7.168 -0.0530  0.1591  0.5387
 2726WAT     H111610   3.143   7.162   7.146  0.2074  1.3894 -2.1978
 2726WAT     H211611   3.009   7.185   7.127 -0.5885  0.3620  1.2581
 2726WAT    EPW11612   3.078   7.204   7.159  0.2300 -0.0045  0.5072
 2727WAT      O11613   6.761   2.486   5.867  0.1199  0.2449 -0.6994
 2727WAT     H111614   6.699   2.545   5.884 -0.4582 -0.3284 -0.7706
 2727WAT     H211615   6.724   2.435   5.806  0.1489 -0.8975  0.2026
 2727WAT    EPW11616   6.746   2.487   5.860  0.5252  0.5073  0.3608
 2728WAT      O11617   0.616   3.153   0.480 -0.0016 -0.4340 -0.2609
 2728WAT     H111618   0.669   3.089   0.509  0.6943 -0.5683 -1.7661
 2728WAT     H211619   0.565   3.112   0.422 -0.6688  0.0546 -0.0328
 2728WAT    EPW11620   0.616   3.137   0.476 -0.2345  0.2645 -0.6632
 2729WAT      O11621   0.824   6.051   7.441  0.2713  0.1884 -0.2892
 2729WAT     H111622   0.757   5.996   7.447 -0.8631  1.6262  1.3128
 2729WAT     H211623   0.811   6.091   7.364 -0.1876 -0.1789 -0.4060
 2729WAT    EPW11624   0.812   6.049   7.431  0.2911 -0.7459 -0.0000
 2730WAT      O11625   5.676   4.614   2.958  0.5759  0.2337 -0.1798
 2730WAT     H111626   5.748   4.654   2.930  0.6121  0.4975  0.2877
 2730WAT     H211627   5.706   4.548   3.006  0.5566 -1.2714 -2.0914
 2730WAT    EPW11628   5.691   4.610   2.961  0.4075 -0.3360  0.6235
 2731WAT      O11629   1.434   3.722   0.391  0.0938  0.7575 -0.1604
 2731WAT     H111630   1.497   3.729   0.451 -0.9056 -1.8554  1.3813
 2731WAT     H211631   1.371   3.773   0.423  0.1379  0.5829  0.2191
 2731WAT    EPW11632   1.434   3.731   0.405  0.0419  0.3203 -0.5263
 2732WAT      O11633   0.975   3.490   1.572 -0.0303  0.2726 -0.4225
 2732WAT     H111634   1.035   3.435   1.603 -1.3459 -0.3825  1.0630
 2732WAT     H211635   0.938   3.446   1.506  1.0181  0.6424 -1.2799
 2732WAT    EPW11636   0.978   3.475   1.567  0.3640  0.5376 -0.3087
 2733WAT      O11637   5.453   0.959   6.627  0.1693 -0.4347 -0.0094
 2733WAT     H111638   5.484   0.884   6.596 -0.5813 -1.0446  0.6667
 2733WAT     H211639   5.439   0.943   6.711 -3.0635 -0.6403 -0.4306
 2733WAT    EPW11640   5.455   0.946   6.635  0.1347  0.1719 -0.0816
 2734WAT      O11641   3.872   3.299   6.183 -0.1786 -0.2863 -0.3632
 2734WAT     H111642   3.927   3.295   6.115 -1.3656  1.7912 -1.5523
 2734WAT     H211643   3.809   3.352   6.155 -1.6773 -0.8328  1.7386
 2734WAT    EPW11644   3.871   3.306   6.169  0.4005 -0.3893 -0.1513
 2735WAT      O11645   0.944   0.895   5.822 -0.7213 -0.6849 -0.5653
 2735WAT     H111646   1.005   0.855   5.869 -1.4401 -1.5003 -0.2932
 2735WAT     H211647   0.958   0.980   5.839 -1.1115 -0.9524  1.3738
 2735WAT    EPW11648   0.955   0.902   5.832  0.4328  0.0455  0.1051
 2736WAT      O11649   2.252   3.931   5.033  0.4716 -0.1063 -0.6935
 2736WAT     H111650   2.336   3.946   5.014 -0.3270  3.4868 -2.2324
 2736WAT     H211651   2.242   3.970   5.110 -0.0927  1.0214 -1.3126
 2736WAT    EPW11652   2.263   3.939   5.042 -0.2405 -0.5234  0.1947
 2737WAT      O11653   6.791   2.430   0.795  0.4677 -0.3704  0.1292
 2737WAT     H111654   6.761   2.353   0.821 -1.0520  0.2819  0.4073
 2737WAT     H211655   6.877   2.425   0.811  0.7083 -2.6050 -1.4785
 2737WAT    EPW11656   6.800   2.418   0.801 -0.1956 -0.2254 -0.2750
 2738WAT      O11657   1.842   6.850   5.710 -0.0252 -0.0458  0.3827
 2738WAT     H111658   1.912   6.807   5.741 -0.5098 -0.8190  0.4287
 2738WAT     H211659   1.790   6.786   5.681  0.2099  0.6120 -1.6239
 2738WAT    EPW11660   1.845   6.834   5.710 -0.1515  0.1416  0.9942
 2739WAT      O11661   6.556   4.490   2.214 -0.2675 -0.1228 -0.3723
 2739WAT     H111662   6.485   4.530   2.244 -0.7564 -1.1223 -0.1718
 2739WAT     H211663   6.533   4.466   2.133 -0.0949 -0.2769 -0.3760
 2739WAT    EPW11664   6.542   4.493   2.207  0.6709  0.1425  0.3185
 2740WAT      O11665   2.773   5.470   2.242  0.6884 -0.1661  0.5445
 2740WAT     H111666   2.688   5.451   2.238  0.7540 -0.4478  0.4869
 2740WAT     H211667   2.801   5.424   2.310  0.7026  0.2925  0.8549
 2740WAT    EPW11668   2.764   5.461   2.251 -0.0652  0.3759 -0.8238
 2741WAT      O11669   4.598   6.202   5.974  0.4460 -0.0948 -0.1522
 2741WAT     H111670   4.637   6.208   5.896 -0.4703 -2.7430 -0.9344
 2741WAT     H211671   4.664   6.184   6.028  0.7788 -0.9932 -0.8325
 2741WAT    EPW11672   4.613   6.200   5.970 -0.3752  0.0268  0.0020
 2742WAT      O11673   7.083   2.316   4.006 -0.5152 -0.4040  0.3731
 2742WAT     H111674   7.050   2.259   3.949 -1.7020 -4.2715  4.4089
 2742WAT     H211675   7.169   2.308   3.995 -0.5827 -3.9000  1.3396
 2742WAT    EPW11676   7.091   2.307   3.996  0.0515  0.4795 -0.1944
 2743WAT      O11677   6.635   3.674   5.620  0.1434 -0.4382 -0.0057
 2743WAT     H111678   6.669   3.704   5.695  1.1298  2.0423 -1.3031
 2743WAT     H211679   6.625   3.747   5.572 -1.2583 -1.8335 -1.9686
 2743WAT    EPW11680   6.639   3.690   5.624 -0.3205 -0.2826  0.2067
 2744WAT      O11681   4.635   1.169   4.288  0.5676  0.1408  0.1894
 2744WAT     H111682   4.551   1.192   4.278  0.4122 -0.3989  0.2364
 2744WAT     H211683   4.670   1.182   4.210  0.1591 -0.7666 -0.1591
 2744WAT    EPW11684   4.628   1.174   4.275  0.3003 -0.0593  0.3981
 2745WAT      O11685   0.337   6.511   3.656 -0.0076 -1.1896  0.7211
 2745WAT     H111686   0.325   6.596   3.643  0.3283 -1.2617 -0.1582
 2745WAT     H211687   0.410   6.508   3.703  0.8973 -1.0195 -0.6006
 2745WAT    EPW11688   0.346   6.523   3.661 -0.4906  0.4807 -0.3968
 2746WAT      O11689   1.859   3.236   1.696  0.2542  0.1218  0.2623
 2746WAT     H111690   1.873   3.245   1.782  0.1693 -1.2187  0.4376
 2746WAT     H211691   1.907   3.299   1.661 -0.4309  1.2991  1.3426
 2746WAT    EPW11692   1.868   3.247   1.704  0.0862  0.1467  0.2215
 2747WAT      O11693   0.212   3.626   1.428 -0.1836 -1.1558 -0.3166
 2747WAT     H111694   0.172   3.638   1.505  0.5777 -3.0074  0.4059
 2747WAT     H211695   0.294   3.651   1.442 -0.1518 -1.0377 -0.6835
 2747WAT    EPW11696   0.218   3.632   1.441 -0.5185 -0.1938  0.3646
 2748WAT      O11697   0.696   4.164   3.121 -0.0866 -0.2635 -0.1148
 2748WAT     H111698   0.636   4.116   3.162 -0.9331  2.5075  2.1951
 2748WAT     H211699   0.761   4.170   3.180  0.6444  0.2318 -0.9439
 2748WAT    EPW11700   0.697   4.158   3.136  0.1882 -0.0196 -0.3157
 2749WAT      O11701   0.109   7.189   3.863  0.0280  0.4387 -0.5389
 2749WAT     H111702   0.142   7.268   3.845  2.9454 -0.9708 -2.0965
 2749WAT     H211703   0.162   7.158   3.925 -1.0628 -0.3521  0.0425
 2749WAT    EPW11704   0.122   7.196   3.869  0.1617  0.3775 -0.6069
 2750WAT      O11705   4.293   6.092   2.576 -0.4841 -0.0157 -0.2351
 2750WAT     H111706   4.319   6.093   2.659 -0.0783  2.8765 -0.2836
 2750WAT     H211707   4.317   6.170   2.546 -5.3754  1.3997 -1.4834
 2750WAT    EPW11708   4.300   6.104   2.584  0.0565 -0.5863  0.2207
 2751WAT      O11709   1.435   6.246   0.843  0.5226 -0.1071  0.2326
 2751WAT     H111710   1.468   6.197   0.779  0.0606 -0.0396 -0.0614
 2751WAT     H211711   1.349   6.230   0.840  0.4987 -0.1511  0.8775
 2751WAT    EPW11712   1.427   6.236   0.833  0.1931 -0.4160  0.4045
 2752WAT      O11713   4.074   6.630   7.293  0.1414 -0.1292  0.3509
 2752WAT     H111714   4.096   6.640   7.209  0.3366  0.5725  0.4785
 2752WAT     H211715   3.988   6.645   7.294  0.4713  2.1286  0.5924
 2752WAT    EPW11716   4.065   6.634   7.281 -0.3919  0.1303 -0.3282
 2753WAT      O11717   6.957   2.595   5.717 -0.5150  0.5353 -0.2045
 2753WAT     H111718   6.950   2.574   5.633  0.8887 -0.8169 -0.0314
 2753WAT     H211719   6.888   2.556   5.754 -0.3193 -0.1377 -0.5309
 2753WAT    EPW11720   6.946   2.586   5.710 -0.5602  0.2763 -0.4649
 2754WAT      O11721   2.295   3.763   4.513 -0.1224  0.0557  0.6492
 2754WAT     H111722   2.240   3.729   4.455  1.3109 -0.0274 -0.7565
 2754WAT     H211723   2.372   3.761   4.471  0.3880  3.2783  1.1597
 2754WAT    EPW11724   2.298   3.758   4.498  0.0146 -0.1820 -0.5176
 2755WAT      O11725   3.254   1.626   5.233 -0.1968 -0.4459 -0.1656
 2755WAT     H111726   3.172   1.643   5.260  0.5474  0.4207  1.7799
 2755WAT     H211727   3.251   1.542   5.210 -1.2591 -0.9481  1.5884
 2755WAT    EPW11728   3.241   1.616   5.234 -0.3066 -0.6311  0.6859
 2756WAT      O11729   4.966   1.018   3.371  0.2945 -0.4068 -0.0272
 2756WAT     H111730   5.003   1.081   3.322  1.7939 -1.6071 -0.5201
 2756WAT     H211731   4.882   1.020   3.346  0.1322  1.8283  0.4790
 2756WAT    EPW11732   4.959   1.028   3.360 -0.4074  1.1022  0.5571
 2757WAT      O11733   6.842   4.212   6.690 -0.5908  0.6912 -0.2735
 2757WAT     H111734   6.848   4.233   6.774 -0.3893  1.4768 -0.4810
 2757WAT     H211735   6.779   4.152   6.688 -0.5593  0.6304  0.4397
 2757WAT    EPW11736   6.834   4.206   6.702  0.5263 -0.6633  0.1508
 2758WAT      O11737   5.387   5.927   7.304 -0.2529 -0.7268  0.0249
 2758WAT     H111738   5.453   5.980   7.324 -0.9396  0.3625 -0.5034
 2758WAT     H211739   5.406   5.900   7.223 -1.1209  0.7332 -0.7164
 2758WAT    EPW11740   5.399   5.931   7.295  0.4322  0.1221  0.0987
 2759WAT      O11741   1.223   6.905   4.728  0.4254  0.2586 -0.3295
 2759WAT     H111742   1.197   6.955   4.795 -1.9567 -1.8824  0.4654
 2759WAT     H211743   1.285   6.855   4.763 -0.7616 -0.8043  0.3119
 2759WAT    EPW11744   1.228   6.905   4.743  1.1233 -0.4896  0.2464
 2760WAT      O11745   5.082   0.012   7.216  0.1208 -0.0776  0.2691
 2760WAT     H111746   5.089   0.048   7.295  0.7939 -0.8500  0.5755
 2760WAT     H211747   5.148   0.048   7.171 -0.8881  1.1597 -0.2855
 2760WAT    EPW11748   5.093   0.023   7.221  0.3271 -0.4889  0.1451
 2761WAT      O11749   3.497   2.129   2.250  0.1892  0.4869  0.1028
 2761WAT     H111750   3.570   2.092   2.280 -0.4230 -1.0159 -0.1445
 2761WAT     H211751   3.526   2.191   2.196  1.2746  0.2173  0.3503
 2761WAT    EPW11752   3.512   2.133   2.247  0.3375 -0.1414 -0.3046
 2762WAT      O11753   1.807   0.744   3.052 -0.9191  0.5129  0.2200
 2762WAT     H111754   1.762   0.814   3.079 -0.2206  1.0892 -0.0479
 2762WAT     H211755   1.818   0.759   2.966 -1.2727 -0.2287  0.0409
 2762WAT    EPW11756   1.802   0.757   3.043  0.2359  0.4661 -0.3250
 2763WAT      O11757   2.661   5.903   5.075 -0.0356  0.0464  0.0486
 2763WAT     H111758   2.726   5.859   5.038 -0.0798  0.0512 -0.0344
 2763WAT     H211759   2.698   5.979   5.099 -0.6460  1.3044 -2.5899
 2763WAT    EPW11760   2.676   5.908   5.073  0.1976  0.7331 -0.1973
 2764WAT      O11761   2.582   3.290   7.139 -0.2998 -0.3976  0.3823
 2764WAT     H111762   2.668   3.282   7.123 -0.3765  0.4801 -0.6167
 2764WAT     H211763   2.552   3.330   7.067 -1.3262  0.4798  1.2669
 2764WAT    EPW11764   2.591   3.295   7.126 -0.2743 -0.0386  0.4008
 2765WAT      O11765   7.587   6.453   7.117  0.2133 -0.2895  0.2532
 2765WAT     H111766   7.660   6.484   7.081  0.6822 -2.7173 -1.1677
 2765WAT     H211767   7.597   6.366   7.111 -2.5700 -0.7182  0.4328
 2765WAT    EPW11768   7.599   6.445   7.110  0.0260 -0.4507  0.0807
 2766WAT      O11769   7.011   3.571   7.128 -0.4300  0.2322  0.1048
 2766WAT     H111770   6.924   3.576   7.128 -0.5727 -1.5307 -0.6404
 2766WAT     H211771   7.027   3.486   7.113  1.4220  0.6614 -0.6167
 2766WAT    EPW11772   7.000   3.559   7.126 -0.0828 -0.1911  0.6723
 2767WAT      O11773   1.344   3.389   1.867  0.0075 -0.4565  0.0935
 2767WAT     H111774   1.400   3.342   1.916  0.2610 -1.8052 -1.4171
 2767WAT     H211775   1.386   3.397   1.791 -0.5904  1.1835 -0.0835
 2767WAT    EPW11776   1.359   3.383   1.863 -0.9204  0.7093  0.3304
 2768WAT      O11777   3.029   4.865   0.166  0.0797 -0.0274 -0.4132
 2768WAT     H111778   3.060   4.784   0.155 -0.1414 -0.2740  0.6669
 2768WAT     H211779   3.089   4.916   0.128  0.8319 -0.6256 -0.0602
 2768WAT    EPW11780   3.042   4.861   0.159  0.3508  0.0537  0.0210
 2769WAT      O11781   6.438   3.322   6.801 -0.5114  0.3855 -0.0289
 2769WAT     H111782   6.461   3.387   6.748 -0.8791  0.2707 -0.3286
 2769WAT     H211783   6.352   3.331   6.809 -0.3598  0.9580  1.2872
 2769WAT    EPW11784   6.429   3.333   6.795  0.1188  0.0993 -0.1037
 2770WAT      O11785   3.912   5.932   0.511 -0.1455 -0.2190 -0.4299
 2770WAT     H111786   3.846   5.988   0.499 -0.5156 -0.4732  0.3673
 2770WAT     H211787   3.943   5.920   0.431  0.2550  1.5093 -0.5689
 2770WAT    EPW11788   3.907   5.938   0.498 -0.1579  0.1476  0.6565
 2771WAT      O11789   0.600   0.136   5.901 -0.5394 -0.0164  0.2886
 2771WAT     H111790   0.574   0.073   5.956 -0.8395 -0.8189 -0.7382
 2771WAT     H211791   0.546   0.202   5.919 -0.3077 -0.0798  1.2951
 2771WAT    EPW11792   0.588   0.136   5.912  0.5424  0.7276  0.0359
 2772WAT      O11793   2.492   5.372   4.094 -0.2884 -0.8557 -0.2793
 2772WAT     H111794   2.504   5.363   4.180 -2.2792  0.7918  0.2419
 2772WAT     H211795   2.407   5.360   4.084 -0.2424 -0.0339 -1.8935
 2772WAT    EPW11796   2.482   5.369   4.105 -0.7388 -0.0782 -0.2417
 2773WAT      O11797   4.307   6.055   2.187 -0.0255 -0.2781  0.1646
 2773WAT     H111798   4.379   6.103   2.173 -0.7615  0.8160  0.0141
 2773WAT     H211799   4.300   6.007   2.115  0.2323  0.0342 -0.0747
 2773WAT    EPW11800   4.317   6.055   2.174  0.0079 -0.0025 -0.8143
 2774WAT      O11801   4.826   2.199   1.751 -0.2148 -0.0068  0.4271
 2774WAT     H111802   4.772   2.261   1.780 -0.3971 -0.3804  0.8895
 2774WAT     H211803   4.825   2.140   1.814  1.9427  0.6742  1.1662
 2774WAT    EPW11804   4.818   2.200   1.764  0.5532 -0.4755 -0.0462
 2775WAT      O11805   6.275   3.064   2.833  0.3205  0.0297  0.1030
 2775WAT     H111806   6.339   3.038   2.779  2.2649  0.1352  2.1875
 2775WAT     H211807   6.313   3.129   2.877 -1.6477  0.8320  0.6825
 2775WAT    EPW11808   6.290   3.070   2.832  0.1078 -0.0723  0.1287
 2776WAT      O11809   0.815   5.275   5.149  0.0530 -0.2876 -0.1591
 2776WAT     H111810   0.900   5.293   5.159  0.0642 -0.5164  0.1808
 2776WAT     H211811   0.796   5.309   5.071 -0.0792  1.8232  0.7130
 2776WAT    EPW11812   0.825   5.283   5.139  0.8891 -0.2503  0.2629
 2777WAT      O11813   5.581   0.627   6.313  0.0499  0.3275  0.0762
 2777WAT     H111814   5.657   0.607   6.276 -1.8552 -0.7835 -3.7276
 2777WAT     H211815   5.561   0.705   6.280 -0.0172  1.1570  1.9451
 2777WAT    EPW11816   5.589   0.635   6.303  0.1919  0.6119  0.2822
 2778WAT      O11817   4.649   0.902   0.114 -0.2538 -0.5327 -0.3492
 2778WAT     H111818   4.565   0.908   0.136 -0.0202 -2.0020  1.1930
 2778WAT     H211819   4.648   0.860   0.038 -0.9127 -2.1689  0.5025
 2778WAT    EPW11820   4.637   0.897   0.106  0.1457  0.1423  0.1541
 2779WAT      O11821   0.675   6.688   0.625 -0.9502  0.1858 -0.0768
 2779WAT     H111822   0.750   6.728   0.605 -1.4265  0.6233 -1.0639
 2779WAT     H211823   0.625   6.701   0.554 -2.4625  1.1085  1.0922
 2779WAT    EPW11824   0.678   6.696   0.612  0.1870  0.4392  0.1091
 2780WAT      O11825   0.742   3.955   0.782 -0.3972  0.3211 -0.0386
 2780WAT     H111826   0.697   3.967   0.708 -1.4970 -1.1395  0.3528
 2780WAT     H211827   0.748   3.868   0.789  3.4577  0.3488 -0.6001
 2780WAT    EPW11828   0.736   3.944   0.772 -0.2200 -0.0733 -0.2443
 2781WAT      O11829   6.422   2.089   4.121  0.2698 -0.4115 -0.1664
 2781WAT     H111830   6.495   2.134   4.102  2.3259 -2.1877  2.7351
 2781WAT     H211831   6.451   2.023   4.170 -3.3513 -1.1164  1.3066
 2781WAT    EPW11832   6.437   2.086   4.126  0.5365 -0.0607  0.0402
 2782WAT      O11833   7.399   3.387   2.515 -0.0277 -0.7005  0.1485
 2782WAT     H111834   7.333   3.390   2.573  0.3306  0.5516  0.5047
 2782WAT     H211835   7.387   3.458   2.466 -0.1756 -1.6130 -1.1883
 2782WAT    EPW11836   7.387   3.398   2.517  0.6561 -0.3645 -0.0453
 2783WAT      O11837   6.661   2.546   3.253  0.3831  0.1534 -0.1879
 2783WAT     H111838   6.652   2.579   3.173  0.9214  0.8285  0.0149
 2783WAT     H211839   6.580   2.544   3.284 -0.3188 -3.0239 -1.8094
 2783WAT    EPW11840   6.648   2.551   3.246  0.0897  0.2670  0.6185
 2784WAT      O11841   6.423   2.298   2.921  0.0881  0.1937 -0.0419
 2784WAT     H111842   6.356   2.347   2.947 -0.1052 -0.2888  0.3844
 2784WAT     H211843   6.456   2.343   2.854 -0.7842  0.3422 -0.3880
 2784WAT    EPW11844   6.418   2.312   2.915  0.5248  0.7394  0.2730
 2785WAT      O11845   7.162   3.790   5.391 -0.2329  0.8245 -0.2548
 2785WAT     H111846   7.101   3.851   5.374 -1.2355  0.2479  1.0681
 2785WAT     H211847   7.229   3.813   5.340 -1.1963  2.0616 -1.0244
 2785WAT    EPW11848   7.163   3.802   5.381 -0.0020  0.2863 -0.0011
 2786WAT      O11849   4.666   1.129   5.650 -0.0113 -0.4587 -0.2129
 2786WAT     H111850   4.583   1.124   5.622 -0.2509 -1.6128  0.6036
 2786WAT     H211851   4.712   1.139   5.576 -0.7864 -1.1818 -0.8230
 2786WAT    EPW11852   4.661   1.130   5.635  0.9203  0.0579 -0.2692
 2787WAT      O11853   0.682   3.827   5.106 -1.1001 -0.2188 -0.5731
 2787WAT     H111854   0.722   3.904   5.104 -0.0396 -0.6362  1.3569
 2787WAT     H211855   0.711   3.787   5.034 -0.9912  0.8610 -1.1448
 2787WAT    EPW11856   0.692   3.832   5.095  0.2725  0.2587  0.3404
 2788WAT      O11857   5.747   5.957   0.960 -0.1335  0.5708  0.0200
 2788WAT     H111858   5.773   5.889   0.913 -0.9366  0.2659  0.0114
 2788WAT     H211859   5.726   5.922   1.037 -2.2851  0.5049 -0.5478
 2788WAT    EPW11860   5.748   5.942   0.964  0.2247 -0.8289 -0.0955
 2789WAT      O11861   2.497   0.808   6.693 -0.6951 -0.2148  0.4753
 2789WAT     H111862   2.572   0.826   6.733  0.3053  0.6512 -1.6632
 2789WAT     H211863   2.482   0.725   6.714  0.6667 -0.3012  1.2267
 2789WAT    EPW11864   2.506   0.799   6.702  0.8763 -0.1954 -0.0257
 2790WAT      O11865   2.415   4.808   3.767 -0.2214  0.5853  0.1669
 2790WAT     H111866   2.482   4.820   3.711 -1.4742  0.8021 -1.3519
 2790WAT     H211867   2.413   4.721   3.777  0.8321  0.6274  0.9671
 2790WAT    EPW11868   2.425   4.797   3.760  0.1633 -0.1646  0.0643
 2791WAT      O11869   3.284   7.012   7.113 -0.3469 -0.4590 -0.4447
 2791WAT     H111870   3.366   7.016   7.142 -0.9444  0.7831  1.2452
 2791WAT     H211871   3.256   6.934   7.139  0.3353 -0.9671 -1.1972
 2791WAT    EPW11872   3.292   7.001   7.121  0.6608 -0.9501  0.7167
 2792WAT      O11873   6.387   3.452   4.718  0.1021 -0.0962 -0.2639
 2792WAT     H111874   6.426   3.469   4.642  1.3942 -1.6271 -0.0090
 2792WAT     H211875   6.397   3.366   4.728 -3.1780 -0.5873 -0.0132
 2792WAT    EPW11876   6.394   3.442   4.709  0.2714  0.3908 -0.2014
 2793WAT      O11877   5.388   3.186   5.553  0.0648  0.1084 -0.3797
 2793WAT     H111878   5.307   3.162   5.531  0.0900 -1.1500  0.7559
 2793WAT     H211879   5.376   3.242   5.618  0.0319 -2.7387  2.3247
 2793WAT    EPW11880   5.374   3.191   5.559  0.3109  0.0891 -0.3940
 2794WAT      O11881   6.242   2.407   0.505 -0.1885  0.4558  0.0358
 2794WAT     H111882   6.156   2.404   0.488 -0.4374  0.0083  1.2234
 2794WAT     H211883   6.245   2.437   0.587  0.8559  1.4143 -0.3383
 2794WAT    EPW11884   6.230   2.411   0.515  0.2296 -0.5289 -0.5604
 2795WAT      O11885   1.185   7.049   6.932 -0.4617 -0.7019  0.1948
 2795WAT     H111886   1.141   7.069   7.005 -0.1606 -1.7610  0.6802
 2795WAT     H211887   1.268   7.045   6.958 -0.3745 -1.2853 -0.1506
 2795WAT    EPW11888   1.191   7.051   6.947  0.5839  0.0512 -0.5045
 2796WAT      O11889   4.873   5.488   4.989  0.0435  0.4385 -0.2067
 2796WAT     H111890   4.954   5.503   4.962  0.0950 -0.0054 -0.3106
 2796WAT     H211891   4.863   5.402   4.976 -1.3828  0.8872 -2.8605
 2796WAT    EPW11892   4.883   5.478   4.983  0.1179 -0.1992 -0.0027
 2797WAT      O11893   3.613   5.370   3.239  0.5705  0.3832  0.0335
 2797WAT     H111894   3.570   5.332   3.173 -0.1846  0.8820  0.2231
 2797WAT     H211895   3.636   5.447   3.205  0.6332  0.4287  0.1821
 2797WAT    EPW11896   3.610   5.376   3.224  0.1670  0.3464 -0.7670
 2798WAT      O11897   5.502   4.771   4.155 -0.1284 -0.4636  0.3319
 2798WAT     H111898   5.573   4.813   4.126  1.3385 -1.9081  1.6155
 2798WAT     H211899   5.474   4.726   4.086  1.1515 -1.0770  0.1967
 2798WAT    EPW11900   5.508   4.771   4.140  0.1212  0.5101 -0.3625
 2799WAT      O11901   6.474   3.712   6.039  0.4201  0.8018 -0.2563
 2799WAT     H111902   6.429   3.780   6.007  0.2078  0.3736 -0.8782
 2799WAT     H211903   6.520   3.747   6.105 -0.0504  1.4479 -0.2649
 2799WAT    EPW11904   6.474   3.727   6.044 -0.1414 -0.5603 -0.2416
 2800WAT      O11905   1.006   6.365   2.810  0.0764  0.1773  0.0736
 2800WAT     H111906   1.023   6.320   2.737 -0.9625 -1.5574  0.8293
 2800WAT     H211907   1.068   6.340   2.865 -1.0608 -1.2284  0.8128
 2800WAT    EPW11908   1.017   6.355   2.807  0.2029  0.6001  0.2807
 2801WAT      O11909   4.179   5.684   3.745 -0.6408 -0.5394 -0.3875
 2801WAT     H111910   4.149   5.705   3.666 -2.0235  1.2547  0.5339
 2801WAT     H211911   4.216   5.759   3.773  1.3499 -1.6148  0.0345
 2801WAT    EPW11912   4.180   5.698   3.738 -0.9881  0.1075  0.3429
 2802WAT      O11913   5.324   1.409   3.291  0.9229  0.5627  0.3048
 2802WAT     H111914   5.360   1.414   3.211 -0.2197 -1.7563 -0.4556
 2802WAT     H211915   5.252   1.362   3.278  1.2126 -0.7667  2.8606
 2802WAT    EPW11916   5.319   1.402   3.277 -0.2459  0.3811 -0.1784
 2803WAT      O11917   6.491   1.479   1.073  0.2261  0.5076 -0.0371
 2803WAT     H111918   6.463   1.554   1.107  2.6157  0.5033  2.3093
 2803WAT     H211919   6.452   1.419   1.122  0.6066  0.3468  0.0726
 2803WAT    EPW11920   6.481   1.481   1.085  0.0073 -0.1642 -0.2755
 2804WAT      O11921   1.823   0.669   5.568  0.3983  0.6032 -0.0186
 2804WAT     H111922   1.739   0.665   5.544 -0.2065  1.3131  1.8276
 2804WAT     H211923   1.855   0.593   5.541 -1.3100 -0.4896  0.8458
 2804WAT    EPW11924   1.815   0.657   5.561 -0.1638 -0.2124 -0.3673
 2805WAT      O11925   6.663   1.324   2.905 -0.2023 -0.0649  0.1693
 2805WAT     H111926   6.606   1.283   2.854 -0.2013 -0.5806  0.5735
 2805WAT     H211927   6.667   1.274   2.976 -2.0183  1.8382  1.7410
 2805WAT    EPW11928   6.655   1.310   2.908  0.0743 -0.6338  0.2750
 2806WAT      O11929   3.259   4.167   6.025  0.0870 -0.3309  0.0440
 2806WAT     H111930   3.258   4.118   6.097  1.3289  0.3351  0.5532
 2806WAT     H211931   3.223   4.242   6.050  0.2466 -0.2048 -0.0982
 2806WAT    EPW11932   3.254   4.171   6.039 -0.3992 -0.1369  0.2997
 2807WAT      O11933   1.996   6.346   1.686  0.5500  0.1965  0.6296
 2807WAT     H111934   2.016   6.398   1.619 -1.3407  0.2107 -0.0106
 2807WAT     H211935   1.977   6.270   1.647  1.5246 -0.4416  1.3741
 2807WAT    EPW11936   1.996   6.342   1.670 -0.4179  0.3698  0.1790
 2808WAT      O11937   7.265   4.875   2.345  0.4416  0.0556  0.0842
 2808WAT     H111938   7.322   4.844   2.287  0.9196  1.0150  0.0380
 2808WAT     H211939   7.269   4.816   2.410 -1.6523 -2.2238 -1.6509
 2808WAT    EPW11940   7.274   4.861   2.346  0.5944 -0.2341  0.3676
 2809WAT      O11941   7.604   4.002   4.475 -0.3550 -0.5991 -0.2812
 2809WAT     H111942   7.635   4.023   4.554  0.9659 -0.6840 -0.7573
 2809WAT     H211943   7.662   4.038   4.420 -3.2838  3.0626 -1.4135
 2809WAT    EPW11944   7.617   4.011   4.478  0.1020 -0.1144  0.4461
 2810WAT      O11945   3.698   3.204   1.490 -0.1693  0.4697  0.0494
 2810WAT     H111946   3.752   3.245   1.436 -1.4664  2.3402  0.0829
 2810WAT     H211947   3.733   3.217   1.569  0.0157  0.5300 -0.0431
 2810WAT    EPW11948   3.711   3.212   1.494 -0.5433  0.6397 -0.2667
 2811WAT      O11949   0.573   2.745   2.053 -0.6938 -0.1251 -0.2503
 2811WAT     H111950   0.490   2.770   2.042 -0.3944  1.0204 -0.0529
 2811WAT     H211951   0.566   2.667   2.092 -1.7084  1.2315  2.5292
 2811WAT    EPW11952   0.560   2.737   2.057  0.4289 -0.4927 -0.0379
 2812WAT      O11953   2.046   1.988   6.648  0.1510  0.2034  0.2432
 2812WAT     H111954   2.031   1.981   6.734 -0.7689  2.7217  0.3694
 2812WAT     H211955   1.978   2.035   6.619  2.6553  3.4654 -0.9787
 2812WAT    EPW11956   2.034   1.994   6.657 -0.1506 -0.2358  0.2977
 2813WAT      O11957   5.021   2.782   2.651  0.1119 -0.0847 -0.3469
 2813WAT     H111958   4.962   2.789   2.587  0.1770 -2.2003 -0.6959
 2813WAT     H211959   4.977   2.740   2.714  0.8409 -0.4700 -0.0875
 2813WAT    EPW11960   5.006   2.777   2.651  0.4000  0.3875  0.5371
 2814WAT      O11961   7.268   4.601   0.181  0.1631  0.4401 -0.3361
 2814WAT     H111962   7.213   4.635   0.122 -0.9275  0.3122  0.5667
 2814WAT     H211963   7.250   4.516   0.180 -0.0255  0.4650  0.3228
 2814WAT    EPW11964   7.257   4.594   0.172 -0.1445 -0.2601  0.0906
 2815WAT      O11965   0.990   1.526   3.833  0.2811  0.1866 -0.4597
 2815WAT     H111966   0.974   1.455   3.882 -1.5010  1.1268  0.4297
 2815WAT     H211967   1.076   1.534   3.836  0.3029 -0.0138  2.3143
 2815WAT    EPW11968   1.000   1.517   3.841  0.4024 -0.5864 -0.4798
 2816WAT      O11969   6.269   6.581   1.798 -0.1746  0.0544  0.1884
 2816WAT     H111970   6.282   6.620   1.721  3.7981 -0.8243  0.1826
 2816WAT     H211971   6.325   6.622   1.851  1.0910 -2.6901  1.1841
 2816WAT    EPW11972   6.280   6.593   1.794  0.2918  0.2579 -0.0703
 2817WAT      O11973   3.344   5.564   4.972 -0.4358  0.4275  0.0419
 2817WAT     H111974   3.425   5.545   4.946 -0.0723 -0.9572  1.9458
 2817WAT     H211975   3.335   5.518   5.046 -3.3282 -0.2257 -0.6144
 2817WAT    EPW11976   3.355   5.554   4.979  0.4286 -0.5660 -0.4170
 2818WAT      O11977   4.873   5.790   5.367 -0.3860  0.0682  0.7802
 2818WAT     H111978   4.919   5.835   5.307  0.2855 -1.2972  0.2411
 2818WAT     H211979   4.903   5.709   5.359 -1.4698 -0.4585  1.8505
 2818WAT    EPW11980   4.884   5.785   5.357 -0.3301  0.2749 -0.5857
 2819WAT      O11981   2.215   1.657   0.070 -0.0808 -0.1121 -0.5113
 2819WAT     H111982   2.258   1.613   0.009  2.0320  1.4815 -0.2847
 2819WAT     H211983   2.196   1.733   0.032  0.3854  0.5189  0.4721
 2819WAT    EPW11984   2.219   1.662   0.056  0.0128 -0.0270  0.0591
 2820WAT      O11985   3.537   0.686   5.825  0.2372  0.0082  0.4533
 2820WAT     H111986   3.535   0.773   5.822  1.3011  0.0897  1.3255
 2820WAT     H211987   3.583   0.669   5.897 -0.0885 -1.2864  0.3933
 2820WAT    EPW11988   3.543   0.696   5.836  0.2958 -0.5323  0.3658
 2821WAT      O11989   6.928   5.752   0.723 -0.4126 -0.2286  0.2080
 2821WAT     H111990   6.877   5.748   0.653  0.5232  1.5469 -0.6432
 2821WAT     H211991   6.958   5.834   0.722  1.5418 -0.8629  1.3032
 2821WAT    EPW11992   6.925   5.763   0.713 -0.5066 -0.8208 -0.2109
 2822WAT      O11993   3.208   5.661   1.150 -0.0006  0.3882 -0.3301
 2822WAT     H111994   3.258   5.722   1.187  0.8805 -0.6846  0.3260
 2822WAT     H211995   3.221   5.672   1.065  1.2520  0.2259 -0.1746
 2822WAT    EPW11996   3.217   5.672   1.143  0.2088 -0.5002 -0.1252
 2823WAT      O11997   3.586   3.935   5.628  0.8321  0.4468  0.3258
 2823WAT     H111998   3.582   4.019   5.607 -0.1197  0.2849 -0.1821
 2823WAT     H211999   3.590   3.895   5.550  0.9159  0.0076  0.5553
 2823WAT    EPW12000   3.586   3.941   5.613 -0.7980  0.1515  0.0719
 2824WAT      O12001   3.304   1.468   2.655 -0.2437 -0.1310 -0.1885
 2824WAT     H112002   3.352   1.403   2.690  0.0901  0.1575 -0.1039
 2824WAT     H212003   3.364   1.525   2.627 -0.5451  0.4896  0.4060
 2824WAT    EPW12004   3.320   1.467   2.656  0.0395 -1.1184  0.5736
 2825WAT      O12005   5.451   0.795   0.537  0.3792  0.3128  0.1009
 2825WAT     H112006   5.492   0.735   0.584  0.8292  0.4402 -0.1276
 2825WAT     H212007   5.501   0.805   0.467 -1.4236 -1.5622 -1.5921
 2825WAT    EPW12008   5.464   0.788   0.534  0.3868 -0.8068  0.4244
 2826WAT      O12009   0.369   5.354   6.711 -0.1068  0.2931 -0.1701
 2826WAT     H112010   0.435   5.402   6.742 -0.8559  0.6154  0.9973
 2826WAT     H212011   0.324   5.411   6.661  0.2540  0.1824 -0.6309
 2826WAT    EPW12012   0.372   5.370   6.708  0.0803 -0.0349  0.7785
 2827WAT      O12013   6.320   2.786   6.950  0.6105 -0.6301  0.2354
 2827WAT     H112014   6.307   2.831   7.023  1.1607  0.1059 -0.1153
 2827WAT     H212015   6.294   2.840   6.887  1.3082 -0.7845 -0.1908
 2827WAT    EPW12016   6.314   2.800   6.951 -0.2436 -0.0013  0.1147
 2828WAT      O12017   6.603   7.567   2.926 -0.2179  0.2525 -0.5823
 2828WAT     H112018   6.573   7.487   2.944  3.7034 -0.9222  2.1796
 2828WAT     H212019   6.684   7.552   2.896  2.0669  3.0130  3.3172
 2828WAT    EPW12020   6.610   7.553   2.924 -0.0521 -0.4198 -0.5263
 2829WAT      O12021   3.143   2.749   5.449  0.3510 -0.0381 -0.5791
 2829WAT     H112022   3.159   2.835   5.454 -1.1342  0.2010  1.0530
 2829WAT     H212023   3.183   2.716   5.519 -0.2879 -0.4512 -0.4024
 2829WAT    EPW12024   3.151   2.757   5.460 -0.0852 -0.2837 -0.6433
 2830WAT      O12025   2.846   2.884   5.663 -0.1779  0.4132  0.1013
 2830WAT     H112026   2.762   2.867   5.646 -0.1652  0.5706 -0.1192
 2830WAT     H212027   2.876   2.915   5.588  0.3527 -0.6730 -0.1515
 2830WAT    EPW12028   2.838   2.886   5.649 -0.2186 -0.2881  0.4674
 2831WAT      O12029   5.348   2.643   1.056 -0.2658 -0.5449  0.2624
 2831WAT     H112030   5.359   2.623   0.972  1.3832 -1.4401  0.6519
 2831WAT     H212031   5.279   2.594   1.080 -1.5249  0.6078 -0.8004
 2831WAT    EPW12032   5.339   2.633   1.048 -0.3499  0.6605 -0.0347
 2832WAT      O12033   3.980   6.484   4.203 -0.4881 -0.3244 -0.2062
 2832WAT     H112034   3.921   6.548   4.215 -0.7395 -0.3935 -1.0580
 2832WAT     H212035   4.051   6.526   4.176 -0.2495 -0.2846  0.4468
 2832WAT    EPW12036   3.982   6.500   4.201 -0.3930  0.3162 -0.0451
 2833WAT      O12037   4.358   4.821   4.496 -0.2117  0.2398 -0.0025
 2833WAT     H112038   4.434   4.800   4.533  1.2105  0.2738 -2.6224
 2833WAT     H212039   4.322   4.743   4.479  1.3044 -0.0357 -2.4948
 2833WAT    EPW12040   4.364   4.806   4.499  0.0062  0.7601 -0.3320
 2834WAT      O12041   6.514   1.365   0.023  0.1366  0.1454  0.0430
 2834WAT     H112042   6.591   1.347   0.060 -0.3872 -2.4083  0.0863
 2834WAT     H212043   6.535   1.401  -0.053  1.4990 -2.1169 -0.7481
 2834WAT    EPW12044   6.528   1.367   0.017 -0.4568  0.0360 -0.4743
 2835WAT      O12045   1.997   4.131   4.471  0.1497  0.2167  0.3908
 2835WAT     H112046   2.042   4.104   4.541 -1.2214 -0.7622  0.9516
 2835WAT     H212047   1.960   4.205   4.498 -0.9701 -0.5309  1.0137
 2835WAT    EPW12048   1.998   4.138   4.486 -0.9455 -0.6611 -0.1373
 2836WAT      O12049   3.480   6.853   3.756  0.3705 -0.1665 -0.0320
 2836WAT     H112050   3.422   6.808   3.709  0.9133 -0.3508 -0.5509
 2836WAT     H212051   3.475   6.934   3.725 -1.3619  0.4214  1.6245
 2836WAT    EPW12052   3.471   6.858   3.745 -0.0314  0.0524 -0.0940
 2837WAT      O12053   5.935   2.534   0.684  0.7834 -0.9556 -0.1051
 2837WAT     H112054   5.875   2.514   0.744  0.8650 -0.7985  0.0315
 2837WAT     H212055   6.005   2.554   0.732  0.9307 -1.1003 -0.2625
 2837WAT    EPW12056   5.937   2.534   0.700  0.2207 -0.0936  0.2213
 2838WAT      O12057   1.756  -0.007   2.206  0.5934 -0.2183  0.3131
 2838WAT     H112058   1.723   0.072   2.189 -3.0919 -0.8117  3.3807
 2838WAT     H212059   1.726  -0.056   2.140 -0.5501  0.2294  0.4859
 2838WAT    EPW12060   1.747  -0.003   2.194  0.4595  0.1358 -0.4996
 2839WAT      O12061   5.361   3.243   2.083 -0.2357  0.1075 -0.1764
 2839WAT     H112062   5.403   3.298   2.031  0.6353  1.3856  1.7707
 2839WAT     H212063   5.298   3.211   2.032  0.7390  1.0460 -2.0706
 2839WAT    EPW12064   5.358   3.246   2.068  0.3767  0.0936  0.5069
 2840WAT      O12065   5.078   7.128   6.776 -0.2706  0.0578  0.4981
 2840WAT     H112066   5.011   7.130   6.831  0.6684  0.1651  1.6591
 2840WAT     H212067   5.118   7.053   6.794  0.3533  0.3436  0.3621
 2840WAT    EPW12068   5.074   7.117   6.787  0.3721 -0.4887 -0.1761
 2841WAT      O12069   7.342   0.936   4.704  0.0417  0.2476  0.4148
 2841WAT     H112070   7.282   0.883   4.669  0.6459  0.3146 -0.7738
 2841WAT     H212071   7.335   1.009   4.657  1.0906  0.2308  0.2081
 2841WAT    EPW12072   7.332   0.939   4.692  0.6693  0.7133  0.1292
 2842WAT      O12073   5.276   4.764   2.556 -0.3993 -0.3010  0.6301
 2842WAT     H112074   5.255   4.680   2.547  1.9158 -0.7951 -1.1111
 2842WAT     H212075   5.354   4.761   2.595  0.1376  0.9823 -0.2752
 2842WAT    EPW12076   5.284   4.751   2.561  0.2251 -0.0748 -0.2604
 2843WAT      O12077   0.309   6.558   4.130 -0.3207 -0.4258 -0.0931
 2843WAT     H112078   0.364   6.494   4.108  0.7425  0.6664 -0.6935
 2843WAT     H212079   0.286   6.592   4.053 -1.4216 -0.5079  0.1864
 2843WAT    EPW12080   0.314   6.554   4.115 -0.2599  0.5821 -0.0899
 2844WAT      O12081   2.393   1.800   7.479  0.6156 -0.0040 -0.6977
 2844WAT     H112082   2.462   1.795   7.533  0.1828  0.3138 -0.1105
 2844WAT     H212083   2.424   1.768   7.404  2.5798  3.4491 -1.6152
 2844WAT    EPW12084   2.408   1.795   7.476  0.0181  0.2408 -0.0379
 2845WAT      O12085   6.129   4.139   5.549 -0.1302 -0.2128  0.0367
 2845WAT     H112086   6.174   4.119   5.477 -0.3565 -0.5526 -0.0153
 2845WAT     H212087   6.058   4.180   5.518  1.3019  2.6421  0.2437
 2845WAT    EPW12088   6.125   4.142   5.534 -0.2468 -0.0143  0.1350
 2846WAT      O12089   6.734   7.523   1.543 -0.3160  0.1131 -0.1189
 2846WAT     H112090   6.660   7.549   1.505  0.7584  3.1914 -0.4047
 2846WAT     H212091   6.728   7.554   1.624  0.1645 -0.7017  0.2471
 2846WAT    EPW12092   6.722   7.532   1.549 -0.2077  0.1892 -0.6634
 2847WAT      O12093   7.212   0.709   1.283 -0.1532 -0.3784  0.1344
 2847WAT     H112094   7.157   0.678   1.343  1.6033 -0.4672  1.8138
 2847WAT     H212095   7.211   0.795   1.296  1.2229 -0.4960  1.2924
 2847WAT    EPW12096   7.204   0.717   1.294  0.0439 -0.1864  0.2490
 2848WAT      O12097   5.538   0.807   5.220  0.7045 -0.1910  0.6264
 2848WAT     H112098   5.616   0.774   5.201  0.6728  0.8434 -1.6234
 2848WAT     H212099   5.543   0.889   5.191 -1.5000 -0.3886 -0.5206
 2848WAT    EPW12100   5.550   0.814   5.213  0.5027  0.0568  0.3547
 2849WAT      O12101   5.897   7.548   0.397  0.2611  0.1187 -0.0586
 2849WAT     H112102   5.876   7.467   0.419 -0.9317  0.5849  0.6083
 2849WAT     H212103   5.959   7.570   0.454 -1.7999  0.8233  2.0279
 2849WAT    EPW12104   5.903   7.540   0.408 -0.2556  0.1601 -0.1581
 2850WAT      O12105   2.481   2.769   5.264 -0.1264 -0.0186  0.2447
 2850WAT     H112106   2.432   2.729   5.324 -0.4344  1.7336  1.2443
 2850WAT     H212107   2.441   2.751   5.189 -0.6647 -0.9235  0.7291
 2850WAT    EPW12108   2.468   2.760   5.262  0.2295  0.6991 -0.3735
 2851WAT      O12109   5.723   4.420   2.448 -0.0713  0.3364  0.1262
 2851WAT     H112110   5.649   4.463   2.469 -0.8199 -0.9647  0.2502
 2851WAT     H212111   5.784   4.482   2.452 -1.0745  1.3377  0.5564
 2851WAT    EPW12112   5.721   4.436   2.452 -0.4844 -0.0744  0.0071
 2852WAT      O12113   0.009   6.864   4.039  0.2451  0.5742 -0.2013
 2852WAT     H112114   0.067   6.893   4.097 -0.6882  0.7325  0.6977
 2852WAT     H212115  -0.012   6.784   4.069 -0.6217  0.8628  0.0042
 2852WAT    EPW12116   0.014   6.857   4.052  0.2957  0.1080 -0.2237
 2853WAT      O12117   7.503   2.690   4.508  0.7513  0.0819 -0.2410
 2853WAT     H112118   7.470   2.623   4.462 -0.4959  0.6110 -0.1370
 2853WAT     H212119   7.436   2.718   4.556  1.6076  0.5695  0.7277
 2853WAT    EPW12120   7.488   2.684   4.509 -0.0104 -0.1295  0.8138
 2854WAT      O12121   2.889   4.584   7.029 -0.3807  0.3686 -0.8110
 2854WAT     H112122   2.836   4.645   7.063 -0.9864  1.0154 -2.8113
 2854WAT     H212123   2.865   4.579   6.945 -0.9283 -3.2051 -0.6267
 2854WAT    EPW12124   2.877   4.592   7.022  0.2204  0.0126  0.0247
 2855WAT      O12125   3.810   4.294   1.976 -0.7400  0.2336  0.4029
 2855WAT     H112126   3.783   4.346   1.912  0.4886  1.3386  0.7448
 2855WAT     H212127   3.745   4.296   2.034 -1.3535  0.1466 -0.2693
 2855WAT    EPW12128   3.797   4.302   1.975  0.6577 -0.4140 -0.3230
 2856WAT      O12129   5.533   2.528   4.826  0.2577 -0.2055 -0.0738
 2856WAT     H112130   5.490   2.572   4.888 -0.0256  2.8740 -2.2430
 2856WAT     H212131   5.600   2.580   4.807 -0.9966  0.2747 -3.9342
 2856WAT    EPW12132   5.537   2.542   4.833  0.7134  0.0383 -0.2699
 2857WAT      O12133   4.286   3.062   5.117 -0.0312 -0.8633  0.2494
 2857WAT     H112134   4.344   3.088   5.057 -0.6651 -1.2298 -0.5248
 2857WAT     H212135   4.313   3.104   5.189 -0.5674  1.4004 -0.7741
 2857WAT    EPW12136   4.299   3.072   5.119 -0.4244  0.2563 -0.0514
 2858WAT      O12137   2.479   2.779   3.815  0.2036 -0.5737 -0.4713
 2858WAT     H112138   2.397   2.781   3.846  0.2404  2.8234 -0.2142
 2858WAT     H212139   2.485   2.854   3.770  3.7061  0.3038  1.1712
 2858WAT    EPW12140   2.468   2.791   3.813  0.0664  0.9324 -0.1220
 2859WAT      O12141   6.985   4.247   6.201  0.0660  0.6002  0.2684
 2859WAT     H112142   6.939   4.174   6.208 -0.8880  1.2210  0.7333
 2859WAT     H212143   7.030   4.250   6.276  1.4281 -0.3540 -0.4775
 2859WAT    EPW12144   6.985   4.237   6.213 -0.1678  0.0519  0.7676
 2860WAT      O12145   5.280   0.466   1.857 -0.4792  0.1501 -0.8288
 2860WAT     H112146   5.326   0.509   1.796 -1.3359  1.1144 -0.8155
 2860WAT     H212147   5.202   0.506   1.856 -0.5053  0.2187  0.9253
 2860WAT    EPW12148   5.276   0.478   1.848  0.6367  0.0153  0.4857
 2861WAT      O12149   5.376   6.377   1.390 -0.0033  0.4954  0.1434
 2861WAT     H112150   5.298   6.338   1.400 -0.9117  2.2343  0.1700
 2861WAT     H212151   5.424   6.316   1.349 -2.3694  0.4797 -2.9810
 2861WAT    EPW12152   5.372   6.362   1.385 -0.4875 -0.1532 -0.2926
 2862WAT      O12153   7.302   5.069   4.807 -0.4677 -0.0559  0.2699
 2862WAT     H112154   7.302   4.983   4.826  1.2941 -0.0221  0.5660
 2862WAT     H212155   7.350   5.104   4.870 -1.4604  1.2298  0.3420
 2862WAT    EPW12156   7.309   5.061   4.819  0.1428  0.3644 -0.0264
 2863WAT      O12157   6.220   4.723   6.400 -0.3389 -0.1881  0.0786
 2863WAT     H112158   6.294   4.768   6.414 -0.3096 -0.2428  0.1025
 2863WAT     H212159   6.201   4.691   6.479  1.3513 -2.8249 -0.4697
 2863WAT    EPW12160   6.228   4.725   6.414  0.0641  0.1286 -0.5906
 2864WAT      O12161   5.366   4.220   2.095  0.2272  0.0640 -0.2283
 2864WAT     H112162   5.395   4.241   2.175 -1.6082  1.7943  0.0914
 2864WAT     H212163   5.279   4.226   2.104 -0.0134  0.2173 -2.3311
 2864WAT    EPW12164   5.357   4.224   2.108 -0.4080 -0.1257 -0.1632
 2865WAT      O12165   7.405   5.532   4.921  0.1876 -0.3291 -0.0132
 2865WAT     H112166   7.362   5.491   4.984 -1.5475  0.0242 -0.9264
 2865WAT     H212167   7.487   5.538   4.952 -1.2075  3.0483  3.9124
 2865WAT    EPW12168   7.411   5.527   4.935 -0.1686 -0.6149  0.1449
 2866WAT      O12169   7.238   0.079   3.803  0.1490 -0.0146 -0.4132
 2866WAT     H112170   7.234   0.074   3.890 -2.6239 -1.2436 -0.4959
 2866WAT     H212171   7.320   0.056   3.785  0.3589 -1.3768  1.8254
 2866WAT    EPW12172   7.249   0.075   3.813 -0.7423  0.0114  0.1297
 2867WAT      O12173   6.534   6.189   4.667  0.1921  0.2037 -0.0070
 2867WAT     H112174   6.510   6.183   4.584 -1.6478 -0.7338  0.5447
 2867WAT     H212175   6.549   6.107   4.691  0.4606  0.4347  0.6417
 2867WAT    EPW12176   6.532   6.176   4.658  0.0235 -0.0177  0.1474
 2868WAT      O12177   7.165   7.548   0.803  0.0477 -0.4936  0.6776
 2868WAT     H112178   7.152   7.497   0.733  2.3655 -0.7865  0.3857
 2868WAT     H212179   7.206   7.617   0.771 -1.1594  0.5980  1.4105
 2868WAT    EPW12180   7.169   7.550   0.788  0.6465  0.0412  0.1468
 2869WAT      O12181   3.340   3.984   7.007 -0.5240  0.4747 -0.1880
 2869WAT     H112182   3.372   4.048   6.957 -2.4213  1.6130 -0.0276
 2869WAT     H212183   3.329   3.918   6.951  0.8469  0.4629 -0.4837
 2869WAT    EPW12184   3.343   3.984   6.991  0.1380 -0.4992 -0.3991
 2870WAT      O12185   6.937   2.239   7.086  0.8977 -0.2488  0.4414
 2870WAT     H112186   7.001   2.189   7.056 -0.0382 -0.7453 -0.7762
 2870WAT     H212187   6.930   2.215   7.170  0.3463 -2.3121 -0.1498
 2870WAT    EPW12188   6.946   2.228   7.094 -0.0141 -0.2780  0.2399
 2871WAT      O12189   5.138   2.909   3.489 -0.1665  0.6273  0.1130
 2871WAT     H112190   5.066   2.895   3.442 -0.3143  2.1805 -0.1730
 2871WAT     H212191   5.203   2.894   3.433 -0.3020  0.8413 -0.0991
 2871WAT    EPW12192   5.137   2.905   3.474 -0.5169  0.4744 -0.0303
 2872WAT      O12193   5.159   4.454   6.272  0.6823  0.8262 -0.5386
 2872WAT     H112194   5.154   4.368   6.259  0.8140  0.8065 -0.4553
 2872WAT     H212195   5.165   4.461   6.359 -3.7378  1.0893 -0.0268
 2872WAT    EPW12196   5.159   4.442   6.283 -0.2173 -0.2136 -0.7840
 2873WAT      O12197   5.450   4.981   2.600  0.0672  0.5358 -0.5803
 2873WAT     H112198   5.501   4.994   2.531  1.2932  0.3529  0.2547
 2873WAT     H212199   5.505   4.985   2.668 -0.1945 -3.7673  0.1665
 2873WAT    EPW12200   5.466   4.984   2.600  0.0777 -0.2037  0.1803
 2874WAT      O12201   4.289   4.552   7.222  0.1625  0.3010 -0.3842
 2874WAT     H112202   4.360   4.508   7.197  0.1258  0.4408 -0.7471
 2874WAT     H212203   4.269   4.518   7.300  1.8565  1.6727  0.7226
 2874WAT    EPW12204   4.296   4.541   7.230  0.2463  0.4945 -0.6346
 2875WAT      O12205   2.520   0.551   1.564  0.6083 -0.5004  0.6175
 2875WAT     H112206   2.505   0.625   1.520 -0.0150 -1.3742 -0.6717
 2875WAT     H212207   2.606   0.538   1.553  1.3771  1.4316  3.1752
 2875WAT    EPW12208   2.531   0.560   1.556  0.6027 -0.1763  0.0221
 2876WAT      O12209   0.016   1.656   6.214 -0.4358 -0.0216 -0.1341
 2876WAT     H112210   0.057   1.582   6.237  1.4906  0.7295 -0.9351
 2876WAT     H212211  -0.056   1.657   6.264  0.5701 -1.3683  1.4100
 2876WAT    EPW12212   0.011   1.645   6.225 -0.7091  0.2735 -0.3026
 2877WAT      O12213   4.380   6.881   3.743 -0.2524  0.1006  0.1836
 2877WAT     H112214   4.353   6.858   3.823 -3.3003  2.4629  0.0319
 2877WAT     H212215   4.323   6.842   3.690  0.2342  0.5116 -0.6759
 2877WAT    EPW12216   4.368   6.872   3.747 -0.2797 -0.0236  0.6280
 2878WAT      O12217   5.707   6.152   4.326 -0.0731 -0.1450  1.0405
 2878WAT     H112218   5.713   6.179   4.243  0.5805 -1.7224  0.5373
 2878WAT     H212219   5.647   6.205   4.361  2.0982  2.9129  0.5631
 2878WAT    EPW12220   5.699   6.164   4.319  0.0281  0.4852  0.0244
 2879WAT      O12221   0.147   1.700   0.778 -0.5346 -0.1214  0.0764
 2879WAT     H112222   0.104   1.627   0.801  0.2397 -0.9632 -1.0502
 2879WAT     H212223   0.102   1.763   0.817 -1.9999 -1.0841  0.0176
 2879WAT    EPW12224   0.134   1.699   0.787  0.4831 -0.8477  0.1270
 2880WAT      O12225   4.621   7.227   0.656  0.6087  1.0979 -0.3269
 2880WAT     H112226   4.628   7.249   0.572  0.2319  1.6047 -0.2279
 2880WAT     H212227   4.703   7.205   0.678  0.9066  1.9282 -0.5623
 2880WAT    EPW12228   4.634   7.227   0.646  0.3124  0.0878 -0.6497
 2881WAT      O12229   0.905   0.659   2.881 -0.0032 -0.2929 -0.0045
 2881WAT     H112230   0.952   0.607   2.933  0.0512  0.2303  0.4939
 2881WAT     H212231   0.903   0.735   2.926 -2.2587 -0.6008  0.5576
 2881WAT    EPW12232   0.912   0.663   2.896 -0.2239  0.0063 -0.1816
 2882WAT      O12233   0.864   3.053   7.011  0.4716  0.3663 -0.1609
 2882WAT     H112234   0.942   3.030   7.043  0.3383 -0.4363 -0.3692
 2882WAT     H212235   0.820   3.082   7.081  1.0058  0.9682 -0.0740
 2882WAT    EPW12236   0.869   3.054   7.026 -0.1631  0.3522 -0.1014
 2883WAT      O12237   7.308   3.834   0.980 -0.1814  0.0201  0.1806
 2883WAT     H112238   7.331   3.916   0.961  1.5701 -0.0142  1.8659
 2883WAT     H212239   7.351   3.787   0.921  1.6167  0.1719  1.2838
 2883WAT    EPW12240   7.318   3.840   0.968  0.0157 -0.3625  0.4732
 2884WAT      O12241   4.635   4.461   3.586  0.2213 -0.0011  0.2177
 2884WAT     H112242   4.554   4.485   3.564  0.0808 -1.2639 -0.7052
 2884WAT     H212243   4.686   4.503   3.529 -0.0601 -2.2341 -1.7777
 2884WAT    EPW12244   4.631   4.471   3.575  0.5792  0.2473  0.6649
 2885WAT      O12245   5.838   6.955   3.746 -0.1398  0.2159 -0.3381
 2885WAT     H112246   5.754   6.941   3.728  0.1379  0.3538 -1.8798
 2885WAT     H212247   5.878   6.881   3.721  0.2325  0.2813  0.0507
 2885WAT    EPW12248   5.832   6.942   3.739  0.3390  0.1773  0.3442
 2886WAT      O12249   0.331   5.765   2.949 -0.4249  0.4066 -0.0927
 2886WAT     H112250   0.270   5.827   2.957 -1.0819 -0.2741  0.2798
 2886WAT     H212251   0.347   5.763   2.863 -0.0936  1.3636 -0.0657
 2886WAT    EPW12252   0.324   5.774   2.938  1.1106  0.2005 -0.0918
 2887WAT      O12253   3.084   6.064   5.280  0.1086  0.0475  0.1257
 2887WAT     H112254   3.151   6.019   5.314  0.4262  0.7004  0.3870
 2887WAT     H212255   3.085   6.042   5.196  0.8339  0.2522  0.0732
 2887WAT    EPW12256   3.094   6.054   5.272 -0.1633  0.0763  0.4688
 2888WAT      O12257   3.807   7.227   2.193  0.1708 -0.0051  0.0013
 2888WAT     H112258   3.888   7.196   2.194  0.8554  1.6789  0.4345
 2888WAT     H212259   3.757   7.155   2.194  1.6294 -1.0684  1.5185
 2888WAT    EPW12260   3.811   7.212   2.193 -0.3654  0.3277 -0.4064
 2889WAT      O12261   1.837   7.174   2.174  0.1702 -0.1464  0.0878
 2889WAT     H112262   1.861   7.209   2.098 -0.0949 -1.6779 -0.7376
 2889WAT     H212263   1.813   7.093   2.153  0.8100 -0.8707  1.9124
 2889WAT    EPW12264   1.837   7.167   2.159 -0.7323 -0.0647  0.4704
 2890WAT      O12265   1.621   7.229   3.841 -0.4629  0.7028 -0.4458
 2890WAT     H112266   1.626   7.150   3.877 -0.7296  0.7071 -0.3958
 2890WAT     H212267   1.663   7.220   3.765  2.9003  1.4762  1.1448
 2890WAT    EPW12268   1.628   7.216   3.835 -0.4391 -0.3877 -0.4956
 2891WAT      O12269   7.530   0.141   0.075  0.4744 -0.4033  0.3792
 2891WAT     H112270   7.537   0.054   0.072 -0.6581 -0.5028  0.3158
 2891WAT     H212271   7.609   0.167   0.103  0.2495 -1.5560  2.2507
 2891WAT    EPW12272   7.543   0.132   0.078 -0.9764  0.0005 -0.3629
 2892WAT      O12273   6.441   2.466   4.227  0.1254 -0.2486 -0.0971
 2892WAT     H112274   6.401   2.481   4.303 -0.0447 -0.2789 -0.1800
 2892WAT     H212275   6.380   2.487   4.167  0.1149 -0.6290 -0.2207
 2892WAT    EPW12276   6.426   2.471   4.229 -0.5791  0.1873 -0.4543
 2893WAT      O12277   3.423   0.135   7.234  0.0823  0.1714 -0.5801
 2893WAT     H112278   3.401   0.157   7.316 -1.2722 -1.4887 -0.4649
 2893WAT     H212279   3.352   0.153   7.188  0.1839 -0.6451 -1.0704
 2893WAT    EPW12280   3.409   0.141   7.239 -0.0629 -0.5439  0.4388
 2894WAT      O12281   6.611   4.316   2.551  0.6863  0.0819 -0.3531
 2894WAT     H112282   6.584   4.335   2.470  1.1569  0.1512 -0.4991
 2894WAT     H212283   6.572   4.240   2.568 -0.5249  0.7303 -0.0989
 2894WAT    EPW12284   6.601   4.307   2.542  0.0918 -0.1555  0.3383
 2895WAT      O12285   3.033   6.700   3.746 -0.3196 -0.2915  0.3524
 2895WAT     H112286   3.007   6.616   3.750 -1.6120 -0.0389 -1.1529
 2895WAT     H212287   3.098   6.705   3.803 -0.0898 -2.3751  0.3492
 2895WAT    EPW12288   3.039   6.688   3.755  0.1758 -0.0038  0.1916
 2896WAT      O12289   1.914   3.810   0.040  0.5559  0.1564 -0.2012
 2896WAT     H112290   1.912   3.780  -0.042  0.3618 -1.1776  0.2567
 2896WAT     H212291   1.955   3.747   0.083 -0.6325  0.1443  0.9740
 2896WAT    EPW12292   1.920   3.796   0.034  0.0002 -0.0991 -0.1445
 2897WAT      O12293   2.663   0.389   4.111  0.0900 -0.3567 -0.4353
 2897WAT     H112294   2.639   0.316   4.152 -3.6768  1.3260  0.7472
 2897WAT     H212295   2.635   0.377   4.030 -0.7236 -0.1462 -0.1870
 2897WAT    EPW12296   2.655   0.376   4.105 -0.3595  0.3003  0.5524
 2898WAT      O12297   6.162   6.110   2.415  0.8756 -0.0925 -0.1329
 2898WAT     H112298   6.184   6.113   2.331 -0.2933 -2.2096 -0.5927
 2898WAT     H212299   6.104   6.175   2.423  0.1504 -0.5650 -1.2733
 2898WAT    EPW12300   6.157   6.120   2.404  0.6759  0.1427  0.3083
 2899WAT      O12301   7.031   6.816   3.962 -0.0921  0.9576 -0.1458
 2899WAT     H112302   7.041   6.899   3.936 -0.2815  1.3301  0.9392
 2899WAT     H212303   6.946   6.801   3.949  0.0353  0.7729 -0.7891
 2899WAT    EPW12304   7.020   6.826   3.956  0.2799  0.6274 -0.4573
 2900WAT      O12305   7.217   5.598   1.809  0.2387 -0.4271  0.2642
 2900WAT     H112306   7.152   5.607   1.866 -0.2075 -0.2776 -0.2565
 2900WAT     H212307   7.176   5.582   1.733  0.8774 -2.2515  0.2745
 2900WAT    EPW12308   7.201   5.597   1.806  0.3539 -0.2221  0.4254
 2901WAT      O12309   6.346   1.048   6.729 -0.7329 -0.6256 -0.3374
 2901WAT     H112310   6.365   1.132   6.716  0.3136 -0.7530  0.2030
 2901WAT     H212311   6.425   1.012   6.743 -1.1612 -1.6996 -0.5844
 2901WAT    EPW12312   6.361   1.055   6.729  0.1590 -0.1236 -0.0607
 2902WAT      O12313   7.318   5.633   4.092 -0.5582  0.2206 -0.0149
 2902WAT     H112314   7.398   5.614   4.120 -0.3158  0.8092 -0.3038
 2902WAT     H212315   7.307   5.581   4.023 -0.2596  0.4461 -0.2343
 2902WAT    EPW12316   7.328   5.623   4.086 -0.4807  0.7033 -0.1260
 2903WAT      O12317   3.979   5.489   5.130 -0.1181 -0.7087  0.0081
 2903WAT     H112318   4.007   5.535   5.199 -0.1728 -0.8745  0.1404
 2903WAT     H212319   3.989   5.406   5.156  4.0520 -1.0087 -1.6997
 2903WAT    EPW12320   3.985   5.483   5.144  0.2849 -0.4013 -0.1346
 2904WAT      O12321   4.337   3.984   0.743  0.6222 -0.0093 -0.0434
 2904WAT     H112322   4.408   4.001   0.696  1.8227 -2.1181  0.8928
 2904WAT     H212323   4.362   3.920   0.797 -1.1323  1.1951  2.3983
 2904WAT    EPW12324   4.351   3.977   0.744  0.0194 -0.7239  0.0141
 2905WAT      O12325   4.771   6.420   3.864  0.0456 -0.0081  0.2032
 2905WAT     H112326   4.734   6.344   3.843  0.0195 -0.2470  1.1076
 2905WAT     H212327   4.718   6.479   3.827 -0.9753 -0.3651  1.0434
 2905WAT    EPW12328   4.757   6.418   3.855  0.7961 -0.1543  0.2499
 2906WAT      O12329   4.349   6.777   2.412 -0.0226  0.0852  0.2869
 2906WAT     H112330   4.327   6.849   2.368  1.0713  0.3074  0.0778
 2906WAT     H212331   4.279   6.726   2.405 -0.4476  0.7498 -0.3748
 2906WAT    EPW12332   4.335   6.780   2.405 -0.3100  0.5299  0.3021
 2907WAT      O12333   3.869   5.557   4.674 -0.0973  0.1255 -0.1789
 2907WAT     H112334   3.923   5.555   4.606 -1.8654 -0.5342 -1.6505
 2907WAT     H212335   3.844   5.474   4.682 -0.7958  0.3957  0.5280
 2907WAT    EPW12336   3.874   5.545   4.665 -0.2053  0.3436 -0.3777
 2908WAT      O12337   5.947   6.693   0.950 -0.3531 -0.2768  0.2264
 2908WAT     H112338   5.913   6.619   0.982  0.6963 -0.1750  1.6653
 2908WAT     H212339   5.903   6.756   0.993 -0.5731 -0.0833 -0.2791
 2908WAT    EPW12340   5.935   6.691   0.961 -0.5401 -0.1671 -0.6476
 2909WAT      O12341   5.996   7.462   0.152  0.4071 -0.0531 -0.3291
 2909WAT     H112342   6.070   7.417   0.161  0.0964 -0.4866  0.0588
 2909WAT     H212343   5.980   7.494   0.231 -0.4431 -0.9457 -0.1156
 2909WAT    EPW12344   6.004   7.460   0.165 -0.3081  0.3054  0.2722
 2910WAT      O12345   2.285   1.514   0.728  0.4316  0.6135  0.4227
 2910WAT     H112346   2.217   1.543   0.681  0.0153  0.0551  0.6745
 2910WAT     H212347   2.296   1.433   0.699  3.4281  1.8001 -2.3834
 2910WAT    EPW12348   2.276   1.507   0.716 -0.8491  0.1152 -0.5942
 2911WAT      O12349   5.593   4.932   1.735 -0.2194  0.1491 -0.0297
 2911WAT     H112350   5.560   4.879   1.796  1.8902 -1.6153 -0.3066
 2911WAT     H212351   5.659   4.972   1.776  1.8825 -1.8071 -1.2813
 2911WAT    EPW12352   5.598   4.930   1.750 -0.8535  0.0371  0.1308
 2912WAT      O12353   2.662   3.590   0.199 -0.1575 -0.2895  0.0046
 2912WAT     H112354   2.729   3.556   0.243  1.5031  2.2272 -0.3775
 2912WAT     H212355   2.650   3.534   0.132 -0.0356 -1.9797  1.3275
 2912WAT    EPW12356   2.670   3.576   0.195 -0.2301  0.3468  0.3896
 2913WAT      O12357   0.416   2.647   6.063 -0.0938  0.4492 -0.0212
 2913WAT     H112358   0.413   2.580   6.008 -1.8812  0.1668  0.3558
 2913WAT     H212359   0.394   2.716   6.014 -2.0454  0.1438  0.3525
 2913WAT    EPW12360   0.413   2.648   6.048 -0.2690 -0.1684 -0.4458
 2914WAT      O12361   5.928   2.568   4.582 -1.0225 -0.0851  0.3286
 2914WAT     H112362   5.973   2.640   4.560 -4.0049  1.8407  0.0160
 2914WAT     H212363   5.957   2.508   4.525  0.9092  1.0871 -0.0126
 2914WAT    EPW12364   5.939   2.570   4.570 -0.5469 -0.0995  0.3855
 2915WAT      O12365   6.602   6.508   4.573 -0.2682  0.7866  0.0855
 2915WAT     H112366   6.637   6.587   4.588 -0.7756  1.0650 -0.1669
 2915WAT     H212367   6.586   6.509   4.487  0.0294  0.2803  0.0243
 2915WAT    EPW12368   6.605   6.520   4.562  0.5490  0.3289 -0.0636
 2916WAT      O12369   0.108   5.971   3.665  0.1688 -0.0085  0.0229
 2916WAT     H112370   0.170   5.915   3.691  0.4278 -0.7508 -2.0384
 2916WAT     H212371   0.035   5.940   3.701  0.5963 -0.5657  0.4276
 2916WAT    EPW12372   0.107   5.958   3.674 -0.3796  0.2797 -0.6277
 2917WAT      O12373   6.158   2.044   5.636 -0.5663  0.0950 -0.0188
 2917WAT     H112374   6.202   2.098   5.583 -0.8313 -0.4326 -0.8050
 2917WAT     H212375   6.216   1.982   5.655 -0.5832  0.0868  0.0059
 2917WAT    EPW12376   6.173   2.043   5.631  0.4508  0.3313  0.0325
 2918WAT      O12377   6.832   0.731   3.242  0.7905  0.1356 -0.3075
 2918WAT     H112378   6.821   0.782   3.312  2.1657  1.1287 -0.7771
 2918WAT     H212379   6.808   0.782   3.176  1.8454  0.0791 -0.7499
 2918WAT    EPW12380   6.827   0.746   3.243  0.1513  0.8944 -0.1849
 2919WAT      O12381   4.375   7.544   2.000  0.3033 -0.4893  0.2297
 2919WAT     H112382   4.359   7.551   1.914  1.1402 -4.3489 -0.4615
 2919WAT     H212383   4.305   7.501   2.030  1.0170 -1.1569  0.9896
 2919WAT    EPW12384   4.362   7.538   1.992 -0.3200 -0.1771  0.0741
 2920WAT      O12385   1.069   0.556   2.490 -0.2930 -0.2917  0.2596
 2920WAT     H112386   0.996   0.562   2.537 -1.2071 -1.2758 -0.9564
 2920WAT     H212387   1.047   0.589   2.413  1.1373  1.1884  0.4220
 2920WAT    EPW12388   1.055   0.562   2.486 -0.2875 -1.0181 -0.0985
 2921WAT      O12389   7.192   6.402   1.088 -0.1027 -0.7588 -0.6174
 2921WAT     H112390   7.173   6.456   1.023 -0.6659  0.6496  0.6469
 2921WAT     H212391   7.269   6.368   1.065  0.5009  0.9484 -1.2421
 2921WAT    EPW12392   7.201   6.405   1.075  0.0391 -0.0140 -0.8051
 2922WAT      O12393   1.399   0.914   1.798  0.3692 -0.6362  0.6602
 2922WAT     H112394   1.459   0.975   1.815 -0.4397 -0.2723  2.4898
 2922WAT     H212395   1.438   0.840   1.824 -0.0108 -0.3687  2.1002
 2922WAT    EPW12396   1.414   0.912   1.805 -0.0634 -0.7673  0.1908
 2923WAT      O12397   3.407   7.383   2.667  0.3418 -0.8637  0.1198
 2923WAT     H112398   3.389   7.344   2.743 -0.5656 -0.1351  0.2801
 2923WAT     H212399   3.356   7.453   2.666  1.4022 -0.0729 -0.5183
 2923WAT    EPW12400   3.397   7.387   2.678 -0.0123  0.2783 -0.2556
 2924WAT      O12401   6.753   3.376   6.845  0.1320 -0.4366 -0.0912
 2924WAT     H112402   6.721   3.295   6.841  0.2145 -0.5358  0.8957
 2924WAT     H212403   6.840   3.363   6.844  0.2050 -0.5451  1.9719
 2924WAT    EPW12404   6.761   3.362   6.844  0.6886  0.7962 -0.7612
 2925WAT      O12405   0.667   4.820   1.803 -0.0273 -0.5608 -0.3962
 2925WAT     H112406   0.736   4.818   1.856 -0.0599 -0.4870 -0.3510
 2925WAT     H212407   0.703   4.822   1.723  0.0275  0.0383 -0.3593
 2925WAT    EPW12408   0.683   4.820   1.799 -0.3403 -0.0426  0.3925
 2926WAT      O12409   3.767   6.855   4.178  0.4521  0.4304 -0.0872
 2926WAT     H112410   3.757   6.829   4.095  2.2235  0.1191 -0.2418
 2926WAT     H212411   3.729   6.791   4.224  0.0944  0.2392 -0.6409
 2926WAT    EPW12412   3.760   6.842   4.172  0.5459 -0.0087  0.3622
 2927WAT      O12413   1.327   7.489   6.395 -0.0088 -0.0395 -0.7556
 2927WAT     H112414   1.384   7.472   6.459 -0.3955 -0.5375 -0.5308
 2927WAT     H212415   1.283   7.413   6.387 -1.1945  0.5760 -0.3430
 2927WAT    EPW12416   1.329   7.475   6.403 -0.3876  0.8864  0.6870
 2928WAT      O12417   4.815   4.824   1.234 -0.1242  0.3457  0.2473
 2928WAT     H112418   4.864   4.752   1.240 -0.2024  0.4217  2.4462
 2928WAT     H212419   4.873   4.888   1.219  0.0468  0.0043 -0.6315
 2928WAT    EPW12420   4.831   4.823   1.232  0.4199 -0.2432  0.4348
 2929WAT      O12421   6.339   5.354   4.487  0.4297  0.1172  0.1833
 2929WAT     H112422   6.261   5.385   4.466  0.7809  0.2442 -0.9841
 2929WAT     H212423   6.356   5.295   4.425  1.4910  0.4746  0.1128
 2929WAT    EPW12424   6.330   5.350   4.475 -0.1652  0.0170  0.5883
 2930WAT      O12425   6.506   2.983   0.649 -0.3751  0.5674 -0.1421
 2930WAT     H112426   6.519   3.023   0.725 -3.5445  0.9255  0.3697
 2930WAT     H212427   6.445   3.033   0.610  1.6929  0.8676 -3.3486
 2930WAT    EPW12428   6.499   2.997   0.654 -0.3470  0.2666 -0.6365
 2931WAT      O12429   4.632   6.262   5.692  0.6920  0.5880 -0.3291
 2931WAT     H112430   4.588   6.190   5.668  0.0758  0.4307  1.1812
 2931WAT     H212431   4.620   6.317   5.625 -0.5970  0.0157 -0.5891
 2931WAT    EPW12432   4.623   6.260   5.678 -0.5737  0.0982  0.2317
 2932WAT      O12433   6.293   5.785   2.265  0.1915 -0.1440 -0.1751
 2932WAT     H112434   6.228   5.739   2.229 -1.4238  1.5300  0.5021
 2932WAT     H212435   6.285   5.864   2.229  0.2250  0.8059  1.7809
 2932WAT    EPW12436   6.282   5.790   2.254 -0.3658 -0.6834 -0.4558
 2933WAT      O12437   1.112   2.793   3.167 -0.1440 -0.3121  0.0787
 2933WAT     H112438   1.125   2.862   3.115  1.6475 -0.9094 -0.3608
 2933WAT     H212439   1.038   2.758   3.138 -1.7829  2.0826  1.1182
 2933WAT    EPW12440   1.103   2.798   3.155  0.1899 -0.4693  0.1261
 2934WAT      O12441   5.231   6.336   2.792 -0.0862  0.2070  0.7305
 2934WAT     H112442   5.185   6.340   2.718  0.7348 -2.5222 -0.0490
 2934WAT     H212443   5.273   6.412   2.794 -0.2825  0.4584 -1.5204
 2934WAT    EPW12444   5.230   6.348   2.781 -0.2339  0.0913 -0.1362
 2935WAT      O12445   3.064   4.420   2.522 -0.2758  0.1088 -0.1011
 2935WAT     H112446   3.031   4.359   2.468 -0.0068 -0.4634  0.3747
 2935WAT     H212447   3.121   4.462   2.471 -1.2225  0.6799 -0.7450
 2935WAT    EPW12448   3.067   4.417   2.506 -0.3724 -0.2283 -0.1369
 2936WAT      O12449   1.548   6.525   3.898  0.3850  0.2835  0.4450
 2936WAT     H112450   1.565   6.445   3.928  0.3857 -0.2900 -1.0096
 2936WAT     H212451   1.601   6.534   3.829 -1.5894  0.3710 -1.1683
 2936WAT    EPW12452   1.558   6.515   3.892  0.0147 -0.0428  0.0308
 2937WAT      O12453   2.418   1.984   5.345 -0.2521  0.4783 -0.1304
 2937WAT     H112454   2.440   2.043   5.284  0.2202 -0.6825 -1.1202
 2937WAT     H212455   2.332   1.996   5.355 -0.8443 -0.7965 -2.7590
 2937WAT    EPW12456   2.408   1.995   5.337 -0.1065  0.4921 -0.1511
 2938WAT      O12457   3.770   4.728   3.687  0.0711  0.1481  0.2241
 2938WAT     H112458   3.738   4.805   3.662  2.2131  1.3530  0.8691
 2938WAT     H212459   3.851   4.748   3.713  1.0294 -2.4830 -0.4568
 2938WAT    EPW12460   3.778   4.742   3.687  0.5705  0.1912  0.4540
 2939WAT      O12461   5.169   6.516   7.321 -0.6212 -0.0202  0.3421
 2939WAT     H112462   5.249   6.482   7.323 -0.4460  0.4045  2.7223
 2939WAT     H212463   5.121   6.460   7.368 -1.1555  0.9862  1.0384
 2939WAT    EPW12464   5.173   6.503   7.328  0.1459 -0.3951 -0.0863
 2940WAT      O12465   7.652   6.212   1.886  0.3047 -1.1173  0.3243
 2940WAT     H112466   7.685   6.135   1.863  0.1989 -1.1890  0.4135
 2940WAT     H212467   7.581   6.220   1.837 -0.8159 -1.9863  1.7235
 2940WAT    EPW12468   7.647   6.202   1.876  0.2567 -0.7228 -0.3238
 2941WAT      O12469   2.503   7.282   7.359  0.2138 -0.3304 -0.3705
 2941WAT     H112470   2.549   7.258   7.429  0.6803 -0.3950 -0.6915
 2941WAT     H212471   2.565   7.300   7.300 -0.1511  0.6089 -0.4772
 2941WAT    EPW12472   2.519   7.281   7.360 -0.0650 -0.0548 -0.2045
 2942WAT      O12473   7.216   0.583   3.924  0.0433  0.4202  0.4297
 2942WAT     H112474   7.257   0.652   3.890 -0.5663  0.9654  0.7743
 2942WAT     H212475   7.252   0.576   4.004 -0.0320  0.4566  0.4665
 2942WAT    EPW12476   7.228   0.592   3.931 -0.1851  0.2398  0.5152
 2943WAT      O12477   7.133   5.343   7.536 -0.3019 -0.5086  0.1672
 2943WAT     H112478   7.088   5.333   7.462 -0.6085  0.6569  0.1815
 2943WAT     H212479   7.134   5.429   7.548 -0.4039 -0.6931  1.6192
 2943WAT    EPW12480   7.127   5.354   7.527 -0.6555  0.5856 -0.0931
 2944WAT      O12481   2.439   7.047   0.216  0.0221 -0.3097 -0.3954
 2944WAT     H112482   2.396   7.122   0.203 -1.0591 -1.0075 -1.0671
 2944WAT     H212483   2.386   6.987   0.180  1.7625 -1.1854 -1.6328
 2944WAT    EPW12484   2.425   7.049   0.209  0.0777  0.0466  0.4882
 2945WAT      O12485   1.049   5.390   2.507  0.5633  0.4530  0.1515
 2945WAT     H112486   0.989   5.329   2.491 -0.0415  1.1314 -0.2207
 2945WAT     H212487   1.017   5.433   2.575  0.5728  0.9014 -0.1297
 2945WAT    EPW12488   1.036   5.387   2.514 -0.2930  0.1235 -0.6777
 2946WAT      O12489   0.518   1.554   6.506 -0.0443  0.0696 -0.4360
 2946WAT     H112490   0.453   1.592   6.463  0.1387  0.3640 -0.4553
 2946WAT     H212491   0.507   1.581   6.588 -0.0633 -0.0400 -0.4026
 2946WAT    EPW12492   0.507   1.563   6.512  0.3318 -0.0575 -0.2868
 2947WAT      O12493   6.828   7.251   1.498  0.5022  0.4057  0.5175
 2947WAT     H112494   6.788   7.328   1.493 -1.6313 -0.6909 -0.3829
 2947WAT     H212495   6.876   7.249   1.425  0.5866  0.8664  0.5536
 2947WAT    EPW12496   6.830   7.262   1.487  0.4101 -0.6475 -0.0440
 2948WAT      O12497   4.271   2.747   0.376  0.2304  0.3004 -0.5725
 2948WAT     H112498   4.332   2.698   0.338  1.1933 -1.4266  2.7368
 2948WAT     H212499   4.309   2.772   0.451 -2.7073  0.0221  1.1911
 2948WAT    EPW12500   4.286   2.743   0.382  1.0765 -0.2500 -0.1935
 2949WAT      O12501   0.797   4.529   7.488 -0.3720 -0.3180  0.2054
 2949WAT     H112502   0.771   4.464   7.540 -1.7122 -0.6417 -0.7857
 2949WAT     H212503   0.722   4.569   7.468  0.1314 -0.0099 -1.1700
 2949WAT    EPW12504   0.782   4.525   7.493  0.0045 -0.1281 -0.0604
 2950WAT      O12505   3.234   0.990   3.392  0.1249  0.8321  0.0793
 2950WAT     H112506   3.166   0.998   3.337 -0.5821 -0.6957  0.6718
 2950WAT     H212507   3.198   1.000   3.471  0.1136 -1.9700  0.5459
 2950WAT    EPW12508   3.219   0.992   3.396  0.3527  0.0522  0.2216
 2951WAT      O12509   2.793   0.675   4.436 -0.0081 -0.2175 -0.5421
 2951WAT     H112510   2.753   0.740   4.479 -2.4284 -1.1739 -1.2091
 2951WAT     H212511   2.807   0.616   4.498 -1.9219 -0.8744 -0.6719
 2951WAT    EPW12512   2.789   0.676   4.451  0.0043  0.3033  0.2801
 2952WAT      O12513   6.822   0.566   7.229  0.0693  0.1941 -0.2353
 2952WAT     H112514   6.880   0.501   7.238 -1.2403 -1.0617 -0.5563
 2952WAT     H212515   6.790   0.575   7.310  0.5909  0.8025 -0.0860
 2952WAT    EPW12516   6.826   0.558   7.243  0.3205 -0.1287  0.0216
 2953WAT      O12517   7.043   5.197   7.058  0.5288  0.0327 -0.8286
 2953WAT     H112518   7.017   5.133   7.112  0.6309  0.3136 -0.4409
 2953WAT     H212519   7.071   5.154   6.988  2.1980 -0.4558  0.0810
 2953WAT    EPW12520   7.043   5.181   7.056  0.0662 -0.3416  0.4070
 2954WAT      O12521   6.058   0.232   6.980 -0.4804 -0.5144 -0.0884
 2954WAT     H112522   6.026   0.276   7.049 -0.8547 -1.7636  0.5646
 2954WAT     H212523   6.036   0.283   6.912 -1.6685 -0.1076  0.5604
 2954WAT    EPW12524   6.050   0.246   6.981  0.6082 -0.5911  0.6025
 2955WAT      O12525   4.523   2.004   6.945  0.5500 -0.5823 -0.4869
 2955WAT     H112526   4.460   2.052   6.908  0.3239 -1.2933 -1.0390
 2955WAT     H212527   4.563   1.967   6.877  1.3168 -0.4514 -0.1192
 2955WAT    EPW12528   4.520   2.006   6.929 -0.2228 -0.2775  0.5628
 2956WAT      O12529   5.580   4.939   5.600 -0.1053 -0.2994 -0.3351
 2956WAT     H112530   5.533   5.011   5.586 -0.5046 -0.8094 -1.8206
 2956WAT     H212531   5.627   4.930   5.527  0.9609 -0.8189  0.3687
 2956WAT    EPW12532   5.580   4.948   5.587 -0.1306 -0.3853  0.7086
 2957WAT      O12533   0.164   1.859   4.250 -0.8361  0.3236 -0.0342
 2957WAT     H112534   0.200   1.885   4.326  0.4149 -0.0071 -0.4994
 2957WAT     H212535   0.201   1.782   4.235 -2.4247 -0.4608 -0.1007
 2957WAT    EPW12536   0.175   1.852   4.259  0.5124 -0.0405 -0.3068
 2958WAT      O12537   4.659   5.275   3.419  0.3329  0.5926 -0.2409
 2958WAT     H112538   4.712   5.330   3.376  0.4414 -0.3012 -1.2927
 2958WAT     H212539   4.711   5.236   3.476  1.0069 -0.7349 -1.6917
 2958WAT    EPW12540   4.674   5.277   3.421  0.2165  0.1476 -0.2806
 2959WAT      O12541   3.839   6.485   6.372 -0.3520  0.1548 -0.1069
 2959WAT     H112542   3.838   6.531   6.298  0.1365 -0.6979 -0.6667
 2959WAT     H212543   3.851   6.403   6.344  0.4599 -0.0987  0.9518
 2959WAT    EPW12544   3.841   6.480   6.357 -0.2566 -0.3399 -0.2367
 2960WAT      O12545   4.208   0.140   7.063  0.3832 -0.1306 -0.1236
 2960WAT     H112546   4.269   0.148   7.001  2.3863  0.1170  1.7490
 2960WAT     H212547   4.156   0.208   7.049  1.0068  0.1532 -1.2750
 2960WAT    EPW12548   4.209   0.151   7.052 -0.0389  0.7328 -0.6588
 2961WAT      O12549   6.740   1.780   0.153  0.3560 -0.2207 -0.8973
 2961WAT     H112550   6.748   1.707   0.107  4.1201 -0.5787  0.0514
 2961WAT     H212551   6.818   1.818   0.146 -0.1653  1.6804  1.8738
 2961WAT    EPW12552   6.752   1.775   0.145  0.2462 -0.3615 -0.2620
 2962WAT      O12553   0.677   7.532   6.132 -0.3176 -0.6892  0.1856
 2962WAT     H112554   0.647   7.468   6.081  0.1938 -1.0680  0.3549
 2962WAT     H212555   0.763   7.517   6.137 -0.4964 -1.3951  2.1500
 2962WAT    EPW12556   0.685   7.521   6.125 -0.1019 -0.0039 -0.3074
 2963WAT      O12557   1.946   5.942   2.621 -0.0066  0.4860  0.2483
 2963WAT     H112558   2.023   5.975   2.643  0.4848  0.1578 -0.9074
 2963WAT     H212559   1.965   5.864   2.589 -0.9543 -0.1017  1.0746
 2963WAT    EPW12560   1.960   5.936   2.620  0.0519  0.6531  0.0849
 2964WAT      O12561   7.502   2.338   1.028 -0.5215  0.2881  0.0864
 2964WAT     H112562   7.540   2.326   1.106 -1.3413  1.9307  0.7930
 2964WAT     H212563   7.416   2.337   1.047 -0.7214  0.8777 -0.7351
 2964WAT    EPW12564   7.495   2.336   1.043 -0.3330  0.0274 -0.3276
 2965WAT      O12565   0.726   0.312   6.757 -0.9803  0.0344 -0.4433
 2965WAT     H112566   0.726   0.329   6.671  0.3634 -0.3182 -0.5330
 2965WAT     H212567   0.786   0.249   6.766  1.1576  2.1039  1.1135
 2965WAT    EPW12568   0.735   0.305   6.746  0.4949  0.3134  0.0327
 2966WAT      O12569   6.051   2.441   3.266  0.0443  0.5042  0.0614
 2966WAT     H112570   6.069   2.521   3.236  1.5656  0.3544  0.4965
 2966WAT     H212571   6.090   2.439   3.344 -0.5512 -0.4379  0.3554
 2966WAT    EPW12572   6.059   2.452   3.273 -0.3199  0.3192  0.2554
 2967WAT      O12573   1.010   5.989   3.398  0.0245 -0.0250 -0.1067
 2967WAT     H112574   0.983   6.017   3.320 -1.3237 -0.5245  0.1475
 2967WAT     H212575   1.015   6.062   3.445 -3.0923 -0.0204  0.4434
 2967WAT    EPW12576   1.007   6.004   3.394 -0.4098  1.0337  0.2953
 2968WAT      O12577   1.044   0.623   2.232  0.2106  0.0184  0.4241
 2968WAT     H112578   1.085   0.696   2.211 -1.6908  1.0297 -0.0005
 2968WAT     H212579   1.053   0.573   2.161  0.8255  0.1558  0.4052
 2968WAT    EPW12580   1.051   0.626   2.218  0.1424  0.0844 -0.3074
 2969WAT      O12581   0.033   2.793   0.262  0.0958  0.4028 -0.0610
 2969WAT     H112582   0.038   2.863   0.210  0.3219  1.1803  0.9796
 2969WAT     H212583   0.095   2.740   0.230  2.3133  2.0777  1.0956
 2969WAT    EPW12584   0.043   2.796   0.250  1.0305 -0.4334 -0.3704
 2970WAT      O12585   6.487   1.875   5.763  0.4697  0.4268 -0.2837
 2970WAT     H112586   6.537   1.937   5.728  1.6592 -1.0315 -1.3031
 2970WAT     H212587   6.525   1.858   5.840  1.5231 -0.5600 -0.9835
 2970WAT    EPW12588   6.500   1.882   5.769 -0.3345  0.3918 -0.6214
 2971WAT      O12589   2.910   5.821   3.251  0.0082  0.0686 -0.5836
 2971WAT     H112590   2.940   5.845   3.173  1.5124 -2.0031 -0.7378
 2971WAT     H212591   2.832   5.785   3.233  0.6556 -1.0394 -1.2745
 2971WAT    EPW12592   2.903   5.819   3.237 -0.1538 -0.2104  0.5197
 2972WAT      O12593   6.846   0.315   2.026 -0.2114 -0.1274 -0.0913
 2972WAT     H112594   6.927   0.304   2.057  0.0581  0.2620 -0.6356
 2972WAT     H212595   6.799   0.256   2.070  0.0350  0.7899  1.4657
 2972WAT    EPW12596   6.851   0.305   2.037  0.2043 -0.2157 -0.5375
 2973WAT      O12597   0.145   7.339   6.742 -0.3349  0.0025 -1.0941
 2973WAT     H112598   0.216   7.318   6.696 -0.9036 -1.8095 -1.2510
 2973WAT     H212599   0.118   7.413   6.705  1.6164  0.9102 -0.8131
 2973WAT    EPW12600   0.151   7.347   6.730  0.4843  0.1254  0.5480
 2974WAT      O12601   0.809   3.206   5.383 -0.4399  0.6534  0.1809
 2974WAT     H112602   0.811   3.293   5.379 -0.1956  0.6124 -1.0760
 2974WAT     H212603   0.861   3.181   5.317  0.3461 -0.4555  1.1644
 2974WAT    EPW12604   0.817   3.215   5.373 -0.3323 -0.0179  0.0499
 2975WAT      O12605   2.407   5.738   0.364 -0.1674 -0.6853 -0.0391
 2975WAT     H112606   2.424   5.773   0.442 -3.0143 -0.9714  0.8209
 2975WAT     H212607   2.422   5.803   0.308  2.2861 -0.5858  0.6299
 2975WAT    EPW12608   2.412   5.753   0.367 -0.9482  0.0488 -0.3193
 2976WAT      O12609   4.954   5.831   2.946 -0.1945 -0.3101  0.0494
 2976WAT     H112610   4.963   5.784   3.018 -0.5368 -0.0835  0.2410
 2976WAT     H212611   4.916   5.905   2.973 -1.3538 -0.6728 -0.5246
 2976WAT    EPW12612   4.950   5.835   2.960 -0.1253 -0.7860 -0.1340
 2977WAT      O12613   5.930   5.032   7.350 -0.1027 -0.1409 -0.0283
 2977WAT     H112614   5.985   4.967   7.330  0.1190  0.2675 -0.7906
 2977WAT     H212615   5.974   5.104   7.328 -0.7718  0.2101 -0.2482
 2977WAT    EPW12616   5.945   5.033   7.344 -0.6372  0.3743  0.0995
 2978WAT      O12617   6.714   4.085   0.530 -0.0111  0.2229  0.5830
 2978WAT     H112618   6.714   4.136   0.601 -2.8572  0.4346  0.5306
 2978WAT     H212619   6.641   4.107   0.489  0.1606 -1.8716 -0.9889
 2978WAT    EPW12620   6.703   4.096   0.535  0.5786 -0.0290 -0.3507
 2979WAT      O12621   5.923   5.221   0.752 -0.3649  0.1753 -0.3274
 2979WAT     H112622   5.897   5.140   0.734  0.1706  0.0978 -0.7606
 2979WAT     H212623   5.881   5.269   0.693  0.4273  0.0526 -1.0091
 2979WAT    EPW12624   5.913   5.216   0.741  0.2808  0.0739  0.3873
 2980WAT      O12625   1.240   4.578   7.052 -0.5710 -0.6545  0.6056
 2980WAT     H112626   1.283   4.640   7.096 -0.6041 -1.5548  1.9881
 2980WAT     H212627   1.257   4.505   7.097 -2.3339 -1.2869  0.3548
 2980WAT    EPW12628   1.249   4.576   7.065  0.4148 -0.0686 -0.4285
 2981WAT      O12629   4.354   0.416   5.925 -0.2234 -0.1358  0.0765
 2981WAT     H112630   4.296   0.351   5.922 -2.4924  1.7949 -1.1431
 2981WAT     H212631   4.406   0.401   5.857 -1.6291  0.0556 -1.0804
 2981WAT    EPW12632   4.353   0.404   5.914 -0.0407  0.0873 -0.1729
 2982WAT      O12633   5.132   4.578   5.519  0.6657 -0.4194 -0.8949
 2982WAT     H112634   5.213   4.552   5.500  0.1425 -1.7727 -1.3820
 2982WAT     H212635   5.142   4.662   5.542  2.3916 -0.9407  0.4532
 2982WAT    EPW12636   5.145   4.586   5.519 -0.1047  0.3674 -0.1064
 2983WAT      O12637   1.486   0.690   1.555 -0.0873  0.8667 -0.5139
 2983WAT     H112638   1.400   0.689   1.542  0.1273 -1.2706 -2.3307
 2983WAT     H212639   1.516   0.737   1.487  0.3240 -0.9644 -1.6558
 2983WAT    EPW12640   1.478   0.697   1.543 -0.0901  0.2697 -0.7516
 2984WAT      O12641   2.286   5.380   3.410  0.2649  0.2670 -0.2933
 2984WAT     H112642   2.349   5.438   3.425  0.4723 -0.1906  0.7185
 2984WAT     H212643   2.246   5.373   3.487  0.4135 -1.1277 -0.3229
 2984WAT    EPW12644   2.289   5.388   3.424  0.5794  0.5641 -0.0873
 2985WAT      O12645   0.316   7.478   4.279  0.2172  0.1196 -0.4321
 2985WAT     H112646   0.300   7.545   4.225 -0.3520 -0.9923 -1.6753
 2985WAT     H212647   0.278   7.503   4.354  0.9274  1.6362 -0.5248
 2985WAT    EPW12648   0.308   7.492   4.282 -0.3879  0.0010  0.6172
 2986WAT      O12649   6.869   6.650   3.474 -0.0039 -0.3887  0.6929
 2986WAT     H112650   6.874   6.663   3.388 -0.2916  1.2663  0.8777
 2986WAT     H212651   6.953   6.647   3.499  0.0870  0.0531  0.4544
 2986WAT    EPW12652   6.882   6.652   3.465  0.1439 -0.2527  0.2258
 2987WAT      O12653   1.310   5.945   2.619  0.5420  0.1896  0.2049
 2987WAT     H112654   1.335   6.022   2.586  0.6494 -0.3313 -0.9575
 2987WAT     H212655   1.268   5.967   2.693  0.9330  1.3294  0.1008
 2987WAT    EPW12656   1.307   5.960   2.625 -0.3621  0.3026  0.2855
 2988WAT      O12657   5.483   0.203   1.863  0.0958  0.1742 -0.3761
 2988WAT     H112658   5.408   0.208   1.907 -1.2603 -0.7167 -2.4163
 2988WAT     H212659   5.517   0.127   1.889  0.1325  0.4164  0.2992
 2988WAT    EPW12660   5.477   0.192   1.874 -0.6261 -0.1099 -0.2811
 2989WAT      O12661   3.582   0.394   3.238  0.5789  0.1444  0.1827
 2989WAT     H112662   3.496   0.409   3.232  0.4442 -0.5714  0.2570
 2989WAT     H212663   3.603   0.367   3.157  0.8577  0.9048 -0.0071
 2989WAT    EPW12664   3.573   0.392   3.225  0.2296  0.1527  0.1485
 2990WAT      O12665   7.044   2.561   6.999 -0.2132 -0.6596  0.2584
 2990WAT     H112666   6.966   2.550   7.037  0.6519 -3.1950  1.5398
 2990WAT     H212667   7.063   2.645   7.015 -2.5260 -0.0220  0.0767
 2990WAT    EPW12668   7.035   2.572   7.007  0.1247  0.3937  0.3464
 2991WAT      O12669   6.269   1.723   5.356 -0.0900  0.1507  0.3206
 2991WAT     H112670   6.203   1.779   5.351  1.1136  1.5291 -1.2956
 2991WAT     H212671   6.255   1.668   5.290 -0.7790 -0.9437  1.3453
 2991WAT    EPW12672   6.257   1.723   5.346  0.3634  0.2801  0.2387
 2992WAT      O12673   4.931   2.822   0.418 -0.9737 -0.0521  0.1491
 2992WAT     H112674   4.911   2.745   0.455  0.5385 -0.3804  0.3696
 2992WAT     H212675   4.949   2.873   0.486 -1.1343  0.2410 -0.0302
 2992WAT    EPW12676   4.931   2.818   0.433  0.1598  0.0174  0.1352
 2993WAT      O12677   2.400   2.728   2.361 -0.8620 -0.0496 -0.4054
 2993WAT     H112678   2.334   2.782   2.381 -0.5614  0.5584 -1.0398
 2993WAT     H212679   2.464   2.753   2.415 -0.7825  0.1096 -0.5728
 2993WAT    EPW12680   2.399   2.740   2.372 -0.3611  0.1519  0.6010
 2994WAT      O12681   4.143   1.672   1.929 -0.3689  0.3442  0.4061
 2994WAT     H112682   4.071   1.637   1.964 -0.3692 -1.7288 -1.4998
 2994WAT     H212683   4.164   1.617   1.865  3.0466  0.7734  0.9731
 2994WAT    EPW12684   4.136   1.659   1.925  0.2096  0.2506  0.0871
 2995WAT      O12685   1.741   1.054   5.613  0.7394  0.3072  0.3958
 2995WAT     H112686   1.752   1.053   5.700  0.3141  0.3789  0.4527
 2995WAT     H212687   1.776   1.131   5.589 -1.6980  1.6655  0.8721
 2995WAT    EPW12688   1.748   1.066   5.622 -0.5789 -0.4622  0.0269
 2996WAT      O12689   0.605   0.427   4.943  0.5971 -0.0442 -0.0779
 2996WAT     H112690   0.680   0.464   4.920  0.5277 -0.5347 -1.1405
 2996WAT     H212691   0.545   0.468   4.895  0.1884  0.2692  0.6802
 2996WAT    EPW12692   0.607   0.438   4.933  0.1386  0.4982 -0.0779
 2997WAT      O12693   6.923   4.651   7.057 -0.1503  0.0624 -0.0946
 2997WAT     H112694   6.971   4.630   7.127 -0.5205 -0.4618  0.0074
 2997WAT     H212695   6.961   4.724   7.027 -1.2314  1.5486  1.8919
 2997WAT    EPW12696   6.935   4.659   7.063  0.1050  0.0216  0.3830
 2998WAT      O12697   5.771   0.687   4.505  0.0002 -0.5964 -0.7836
 2998WAT     H112698   5.728   0.617   4.533  0.7787 -1.1894 -1.0260
 2998WAT     H212699   5.784   0.733   4.578 -0.4875 -0.7251 -0.6169
 2998WAT    EPW12700   5.767   0.683   4.520  0.4991  0.1803  0.4791
 2999WAT      O12701   3.721   2.841   2.225 -0.6515  0.0021 -0.1011
 2999WAT     H112702   3.655   2.861   2.278 -0.2690 -1.7394  1.0986
 2999WAT     H212703   3.757   2.919   2.208 -1.5508  0.7402  1.1616
 2999WAT    EPW12704   3.716   2.856   2.230 -0.3073  0.3968  0.3003
 3000WAT      O12705   1.026   5.235   1.523  0.3968 -0.4826  0.0720
 3000WAT     H112706   1.003   5.249   1.606  2.2894 -1.4537  0.8020
 3000WAT     H212707   0.950   5.239   1.480 -0.5182  0.9585  1.6881
 3000WAT    EPW12708   1.011   5.238   1.529  0.0523  0.0553 -0.0762
 3001WAT      O12709   6.011   4.562   0.855  0.2716 -0.5299  0.3115
 3001WAT     H112710   6.078   4.559   0.911 -0.0897  1.0488  0.8814
 3001WAT     H212711   5.941   4.558   0.907 -0.0717 -0.1316 -0.1133
 3001WAT    EPW12712   6.010   4.561   0.871 -0.1688 -0.1369 -0.5960
 3002WAT      O12713   4.069   2.462   6.855  0.0679  0.0313 -0.8250
 3002WAT     H112714   4.066   2.423   6.777  1.5370 -0.3944 -0.6946
 3002WAT     H212715   4.093   2.398   6.910  0.5167  0.6453 -0.2777
 3002WAT    EPW12716   4.072   2.447   6.852  0.1549  0.3129  0.4515
 3003WAT      O12717   6.555   5.549   4.570  0.1537  0.0414  0.0643
 3003WAT     H112718   6.505   5.482   4.543 -2.1393  1.8681 -0.5427
 3003WAT     H212719   6.622   5.549   4.514 -0.2562 -1.1889 -0.4630
 3003WAT    EPW12720   6.557   5.539   4.558  0.2360 -0.3467  0.1014
 3004WAT      O12721   3.072   3.679   2.834  0.4783 -0.1230  0.7267
 3004WAT     H112722   3.024   3.712   2.899  0.2401 -4.3257  3.0358
 3004WAT     H212723   3.150   3.668   2.870 -0.0847 -4.1160  1.1088
 3004WAT    EPW12724   3.077   3.682   2.849  0.0126  0.4755  0.0293
 3005WAT      O12725   4.741   5.661   2.894  0.1412 -0.6353  0.3137
 3005WAT     H112726   4.676   5.709   2.861 -1.0889 -1.4901  1.3910
 3005WAT     H212727   4.807   5.717   2.899  0.3572 -0.3639 -3.2279
 3005WAT    EPW12728   4.741   5.676   2.890  0.5438 -0.6184 -0.0851
 3006WAT      O12729   5.218   2.596   0.793 -0.4408 -1.0213 -0.6281
 3006WAT     H112730   5.262   2.671   0.800 -0.4784 -1.0016 -0.5968
 3006WAT     H212731   5.266   2.548   0.739  1.0006 -1.9902  1.3691
 3006WAT    EPW12732   5.232   2.600   0.786 -0.1888  0.3909  0.0135
 3007WAT      O12733   1.015   4.943   7.102 -0.3154 -0.3419  0.4042
 3007WAT     H112734   0.965   5.002   7.063 -0.0682 -1.2038 -1.2886
 3007WAT     H212735   0.958   4.885   7.133 -0.4543 -0.3829  0.0731
 3007WAT    EPW12736   0.999   4.943   7.101 -0.0832 -0.4742  0.6221
 3008WAT      O12737   5.033   0.982   6.801 -0.4337  0.2936  0.1205
 3008WAT     H112738   5.025   1.069   6.806  1.0161  0.4607 -0.0005
 3008WAT     H212739   4.996   0.962   6.725  0.7834  1.0605 -0.7163
 3008WAT    EPW12740   5.026   0.992   6.790 -0.1281 -0.5480  0.2263
 3009WAT      O12741   3.474   2.202   3.842 -0.4233  0.6530  0.2800
 3009WAT     H112742   3.415   2.218   3.779 -0.4653  0.6020  0.3066
 3009WAT     H212743   3.426   2.200   3.914 -0.2782  1.4772  0.4158
 3009WAT    EPW12744   3.458   2.204   3.843 -0.1921  0.1918 -0.0624
 3010WAT      O12745   4.324   6.238   0.884  0.0983 -0.6714 -0.1796
 3010WAT     H112746   4.284   6.313   0.863  3.5374  1.5035  0.2440
 3010WAT     H212747   4.329   6.240   0.971  0.8754 -1.0126 -0.2092
 3010WAT    EPW12748   4.319   6.249   0.893 -0.0316  0.1194  0.1619
 3011WAT      O12749   3.517   4.269   2.842 -0.0173 -0.4703  0.1552
 3011WAT     H112750   3.589   4.222   2.852  1.4643  1.4025 -1.0862
 3011WAT     H212751   3.453   4.213   2.863  1.5873 -2.9822 -1.1508
 3011WAT    EPW12752   3.518   4.254   2.847  0.3905 -0.0626  0.5776
 3012WAT      O12753   7.540   6.962   2.823 -0.2296  0.1122 -0.1125
 3012WAT     H112754   7.588   6.946   2.752  2.0407  0.0323  1.3483
 3012WAT     H212755   7.538   7.049   2.827 -1.1244  0.1385 -0.7057
 3012WAT    EPW12756   7.547   6.972   2.813  0.5322  0.5461 -0.3652
 3013WAT      O12757   5.685   3.376   3.208  0.4660  0.1679 -0.1573
 3013WAT     H112758   5.735   3.415   3.269 -0.0614  1.0050 -0.2437
 3013WAT     H212759   5.638   3.320   3.254 -0.1597  1.0226  0.2786
 3013WAT    EPW12760   5.686   3.374   3.224  0.5331 -1.0480  0.3295
 3014WAT      O12761   5.409   6.643   3.707  0.4948  0.3407 -0.0205
 3014WAT     H112762   5.432   6.722   3.680  0.3092 -0.0724 -1.4598
 3014WAT     H212763   5.365   6.610   3.640  2.8509 -2.0090 -0.5981
 3014WAT    EPW12764   5.406   6.650   3.693  0.6606 -0.3509  1.0573
 3015WAT      O12765   6.236   5.564   0.656  0.3665 -0.2570 -0.0183
 3015WAT     H112766   6.223   5.479   0.671  3.3295 -0.8039  0.0363
 3015WAT     H212767   6.229   5.571   0.569  1.3700 -0.8648 -0.1639
 3015WAT    EPW12768   6.233   5.553   0.646 -0.5852  0.1730 -0.8120
 3016WAT      O12769   4.867   0.654   1.222 -0.2613 -0.3741 -0.0217
 3016WAT     H112770   4.848   0.594   1.284 -2.2193 -0.0436 -0.2182
 3016WAT     H212771   4.873   0.728   1.267  0.1755 -0.4159 -0.0112
 3016WAT    EPW12772   4.865   0.656   1.238  0.1086 -0.9920 -0.3915
 3017WAT      O12773   6.764   3.584   0.115 -0.1093 -0.3911  0.3278
 3017WAT     H112774   6.806   3.637   0.060  1.0137 -0.5245  1.0078
 3017WAT     H212775   6.704   3.636   0.151 -0.6002 -0.2070 -0.7174
 3017WAT    EPW12776   6.761   3.600   0.112  0.1385 -0.2399 -0.2954
 3018WAT      O12777   3.538   1.217   0.673  0.4351 -0.0098  0.2681
 3018WAT     H112778   3.604   1.274   0.666 -0.9887  1.5340 -1.2221
 3018WAT     H212779   3.467   1.264   0.655 -0.9229 -2.0587 -0.0950
 3018WAT    EPW12780   3.538   1.233   0.669  0.1064  0.2178  0.1232
 3019WAT      O12781   5.794   6.932   1.729 -0.0960 -0.2173  0.2880
 3019WAT     H112782   5.817   6.868   1.784  1.2887 -0.8816 -1.0179
 3019WAT     H212783   5.735   6.977   1.775 -1.4964 -2.6770  1.1002
 3019WAT    EPW12784   5.789   6.929   1.744 -0.0300 -0.3707  0.2424
 3020WAT      O12785   6.369   1.658   3.652 -0.2124  0.4503 -0.6527
 3020WAT     H112786   6.355   1.574   3.671  0.0043  0.0585 -2.1158
 3020WAT     H212787   6.293   1.697   3.674 -0.5436 -0.2357 -0.5615
 3020WAT    EPW12788   6.355   1.652   3.658 -0.3540 -0.0295 -0.3845
 3021WAT      O12789   6.949   1.653   6.337  0.6639  0.2618 -0.3182
 3021WAT     H112790   6.956   1.735   6.308  1.3256 -0.4150 -2.2111
 3021WAT     H212791   6.865   1.635   6.325  0.8576  0.1068 -1.6200
 3021WAT    EPW12792   6.938   1.663   6.331 -0.4445 -0.3619  0.0178
 3022WAT      O12793   6.514   3.750   1.066 -0.1449 -0.2103  0.2117
 3022WAT     H112794   6.462   3.750   1.136 -2.5694 -0.5779 -1.4669
 3022WAT     H212795   6.555   3.827   1.071 -1.0640  0.2306  1.4476
 3022WAT    EPW12796   6.512   3.761   1.078  0.7909  0.2943  0.2834
 3023WAT      O12797   3.414   0.347   2.685 -0.5692 -0.1994  0.2667
 3023WAT     H112798   3.414   0.353   2.598  0.0743 -0.5419  0.2324
 3023WAT     H212799   3.462   0.275   2.700 -1.0309 -0.3813  0.8906
 3023WAT    EPW12800   3.421   0.337   2.674 -0.4574  0.0983  0.1090
 3024WAT      O12801   2.651   0.066   2.573  0.3875 -0.2963 -0.4505
 3024WAT     H112802   2.602   0.001   2.606 -0.8918  0.9849  0.2679
 3024WAT     H212803   2.710   0.080   2.636 -1.1291  1.1316  0.7455
 3024WAT    EPW12804   2.653   0.058   2.587  0.3524 -0.2864  0.1098
 3025WAT      O12805   5.058   3.522   4.354  0.7122  0.1502 -0.0663
 3025WAT     H112806   4.990   3.571   4.382  0.2914  0.4679 -1.5683
 3025WAT     H212807   5.124   3.578   4.352  0.4184  0.4826 -0.9993
 3025WAT    EPW12808   5.058   3.538   4.358 -0.1763 -0.1551 -0.1493
 3026WAT      O12809   4.019   7.567   0.368  0.2886  0.1207  0.5677
 3026WAT     H112810   4.077   7.613   0.414  1.0375  0.0140 -0.2312
 3026WAT     H212811   3.944   7.608   0.382  0.4608 -0.0060  1.9913
 3026WAT    EPW12812   4.017   7.580   0.377  0.0671 -0.1617 -0.4656
 3027WAT      O12813   1.471   1.927   2.823 -0.6364 -0.2197 -0.3763
 3027WAT     H112814   1.429   1.855   2.796 -1.2171  0.3336 -0.9762
 3027WAT     H212815   1.458   1.984   2.758  0.5150  0.1719 -0.2784
 3027WAT    EPW12816   1.462   1.924   2.810 -0.2770 -0.0704 -0.3357
 3028WAT      O12817   1.690   0.921   6.934  0.0031 -0.0319 -0.5049
 3028WAT     H112818   1.617   0.902   6.978 -0.2518  1.8676 -0.0433
 3028WAT     H212819   1.663   0.935   6.853 -0.2195  1.1025 -0.2400
 3028WAT    EPW12820   1.675   0.920   6.929 -0.1130 -0.1715 -0.3184
 3029WAT      O12821   7.446   5.212   2.680  0.1687  0.1684 -0.1707
 3029WAT     H112822   7.485   5.290   2.686  0.7737 -0.1770  0.5818
 3029WAT     H212823   7.417   5.210   2.598  0.5245  1.0086 -0.3290
 3029WAT    EPW12824   7.448   5.223   2.669  0.2647  0.0072 -0.2972
 3030WAT      O12825   3.926   1.999   0.169 -0.0047 -0.1474 -0.1945
 3030WAT     H112826   3.975   2.044   0.113  1.0765 -0.1344  0.7311
 3030WAT     H212827   3.959   2.020   0.247 -2.6383  1.3055  0.6741
 3030WAT    EPW12828   3.938   2.009   0.173 -0.0167  0.2350  0.2806
 3031WAT      O12829   5.780   0.672   1.289 -0.0964  0.4562 -0.4290
 3031WAT     H112830   5.707   0.652   1.245 -1.0265  0.8758  0.8940
 3031WAT     H212831   5.759   0.661   1.372  1.6805 -0.4380 -0.0322
 3031WAT    EPW12832   5.766   0.668   1.295  0.5147 -0.1415 -0.8716
 3032WAT      O12833   6.473   4.067   2.734 -0.0979 -0.2782 -0.1838
 3032WAT     H112834   6.498   3.984   2.719  1.1741  0.2340 -1.0885
 3032WAT     H212835   6.392   4.070   2.702 -1.1944 -1.8282  2.2109
 3032WAT    EPW12836   6.465   4.055   2.727  0.1068  0.2399 -0.0358
 3033WAT      O12837   7.423   3.617   5.209  0.2850 -0.8625 -0.1101
 3033WAT     H112838   7.407   3.702   5.201  2.7847 -0.2500  0.4167
 3033WAT     H212839   7.344   3.581   5.212 -0.8667  1.5281  0.5933
 3033WAT    EPW12840   7.409   3.624   5.208 -0.0494  0.1676  0.2842
 3034WAT      O12841   5.853   7.351   2.415 -0.2854 -0.3438 -0.0655
 3034WAT     H112842   5.813   7.327   2.342 -0.9850  1.2306 -0.2386
 3034WAT     H212843   5.811   7.423   2.440  2.0498  1.1215  0.0258
 3034WAT    EPW12844   5.841   7.358   2.408 -0.2306  0.2050  0.4038
 3035WAT      O12845   2.368   4.344   5.033 -0.2771 -0.1073 -0.6025
 3035WAT     H112846   2.341   4.311   4.957  1.9805 -0.6408 -1.2542
 3035WAT     H212847   2.308   4.317   5.090  0.9672 -4.9575 -1.1564
 3035WAT    EPW12848   2.355   4.335   5.030 -0.2981 -0.0402  0.4051
 3036WAT      O12849   4.403   7.495   5.877 -0.6014 -0.1324 -0.4029
 3036WAT     H112850   4.420   7.411   5.889 -3.9657 -0.9098 -0.0156
 3036WAT     H212851   4.426   7.532   5.953 -0.2937 -0.9510 -0.0935
 3036WAT    EPW12852   4.409   7.488   5.890 -1.1079 -0.4561 -0.7309
 3037WAT      O12853   3.856   7.143   6.040 -0.0231  0.1149 -0.4083
 3037WAT     H112854   3.793   7.083   6.030 -1.5031  1.6682 -0.9553
 3037WAT     H212855   3.879   7.164   5.959  0.3755  0.3875 -0.2323
 3037WAT    EPW12856   3.850   7.137   6.027  0.6006  0.5337 -0.0039
 3038WAT      O12857   5.479   7.348   7.113  0.4103  0.1282 -0.5847
 3038WAT     H112858   5.400   7.347   7.151  1.3603 -1.4973  1.5600
 3038WAT     H212859   5.472   7.412   7.054 -3.1434 -1.2318 -1.9332
 3038WAT    EPW12860   5.466   7.357   7.110 -0.1549  0.1903  0.0837
 3039WAT      O12861   2.592   5.801   1.079 -0.2923  0.2204  0.1467
 3039WAT     H112862   2.524   5.855   1.084  0.6594  1.3860  1.0086
 3039WAT     H212863   2.605   5.778   1.163 -2.4914 -3.7775 -0.3381
 3039WAT    EPW12864   2.584   5.805   1.092  0.3025  0.6877 -0.1106
 3040WAT      O12865   4.351   1.939   7.478 -0.3683 -0.3472 -0.2499
 3040WAT     H112866   4.309   1.918   7.552 -0.9657  0.4922 -0.3312
 3040WAT     H212867   4.286   1.952   7.421  0.0820 -0.8156 -0.8764
 3040WAT    EPW12868   4.335   1.938   7.481 -0.1485 -0.0832 -0.3372
 3041WAT      O12869   3.537   6.014   3.135 -0.0691 -0.1817 -0.5818
 3041WAT     H112870   3.454   6.036   3.123  0.0532  0.1884 -0.7775
 3041WAT     H212871   3.536   5.968   3.209 -0.7717 -2.1792 -1.7791
 3041WAT    EPW12872   3.525   6.011   3.144 -0.3315  0.3398  0.4027
 3042WAT      O12873   3.297   3.460   0.174  0.0859 -0.0838 -0.3622
 3042WAT     H112874   3.301   3.547   0.166 -0.1063 -0.0696 -0.3074
 3042WAT     H212875   3.381   3.436   0.177  0.1359  0.1290 -0.0712
 3042WAT    EPW12876   3.310   3.469   0.173  0.3569 -0.0277 -0.2987
 3043WAT      O12877   5.411   4.455   6.607 -0.3853  0.4267  0.2179
 3043WAT     H112878   5.437   4.389   6.658  0.8438  0.6015 -0.1553
 3043WAT     H212879   5.486   4.491   6.580 -0.9566 -0.2089 -2.4451
 3043WAT    EPW12880   5.426   4.451   6.611 -0.2719 -0.0187  0.6199
 3044WAT      O12881   0.784   6.332   6.390  0.0922 -0.4217 -0.4714
 3044WAT     H112882   0.717   6.368   6.432 -0.4187  0.4528 -1.9912
 3044WAT     H212883   0.830   6.294   6.454 -0.6434  0.8695  0.8777
 3044WAT    EPW12884   0.781   6.332   6.406 -0.3900  0.0923  0.1679
 3045WAT      O12885   7.577   7.525   1.964  0.2987  0.4172  0.4148
 3045WAT     H112886   7.581   7.446   2.002 -1.6404  0.7592  1.4631
 3045WAT     H212887   7.532   7.510   1.891 -1.0893  0.6855  1.1748
 3045WAT    EPW12888   7.571   7.511   1.959  0.1159 -0.0872  0.2196
 3046WAT      O12889   4.042   2.474   0.013 -0.4239  0.4245 -0.0996
 3046WAT     H112890   4.079   2.442   0.085  0.1403  1.6750  0.1978
 3046WAT     H212891   4.047   2.560   0.024 -0.1022  0.6559 -1.7502
 3046WAT    EPW12892   4.048   2.482   0.025 -0.7134 -0.2719 -0.8716
 3047WAT      O12893   1.989   1.207   6.049  0.5759 -0.0604  0.5562
 3047WAT     H112894   1.955   1.220   6.129  0.4851 -2.2314  0.9294
 3047WAT     H212895   1.973   1.282   6.008 -1.0810  0.4375  1.9831
 3047WAT    EPW12896   1.982   1.220   6.055 -0.1062 -0.3116 -0.2229
 3048WAT      O12897   6.040   6.405   2.439  0.0489 -0.3062  0.4014
 3048WAT     H112898   5.968   6.409   2.489 -0.3209  1.8212 -0.2202
 3048WAT     H212899   6.011   6.428   2.359  1.2210 -0.4667 -0.0953
 3048WAT    EPW12900   6.025   6.409   2.434 -0.4354 -0.1788 -0.3065
 3049WAT      O12901   7.216   3.727   7.017  0.2449 -0.3098  0.0818
 3049WAT     H112902   7.176   3.803   7.001 -0.9381 -1.3172 -2.4809
 3049WAT     H212903   7.151   3.676   7.047  0.5906 -0.7688  0.0584
 3049WAT    EPW12904   7.200   3.730   7.019  0.4990  0.0255 -0.0738
 3050WAT      O12905   0.189   6.939   0.334 -0.0224  0.3343 -0.2659
 3050WAT     H112906   0.244   6.995   0.372 -0.1904  1.1140 -1.1443
 3050WAT     H212907   0.191   6.961   0.250 -1.1595 -0.0608 -0.4199
 3050WAT    EPW12908   0.197   6.951   0.327  0.4469 -0.0718 -0.0483
 3051WAT      O12909   7.062   2.985   3.947  0.1143  0.1160 -0.2042
 3051WAT     H112910   7.095   2.933   4.008 -2.2086  0.4570  1.4882
 3051WAT     H212911   7.090   3.064   3.970  0.0354  0.1249 -0.1358
 3051WAT    EPW12912   7.071   2.989   3.959 -0.8529 -0.7585 -0.1795
 3052WAT      O12913   1.264   6.357   7.005 -0.0090 -0.2083 -0.3552
 3052WAT     H112914   1.301   6.292   6.961  2.0110  1.0168 -0.6178
 3052WAT     H212915   1.275   6.336   7.089 -2.2320 -1.6619 -0.3409
 3052WAT    EPW12916   1.271   6.345   7.011 -0.1917  0.4408  0.3911
 3053WAT      O12917   3.978   1.913   6.811 -0.3572 -0.6903 -0.7226
 3053WAT     H112918   3.976   1.969   6.878 -0.9245 -0.6913 -0.7373
 3053WAT     H212919   3.899   1.877   6.811  0.1636 -1.8898 -0.3859
 3053WAT    EPW12920   3.966   1.916   6.821  0.0479 -0.7602 -0.1720
 3054WAT      O12921   3.677   4.968   2.509 -0.2271  0.2751 -0.4680
 3054WAT     H112922   3.632   4.927   2.571 -0.4076 -0.8958 -1.3442
 3054WAT     H212923   3.726   5.025   2.553 -0.5819 -0.3019  0.7055
 3054WAT    EPW12924   3.677   4.971   2.525 -0.0569  0.1897  0.1881
 3055WAT      O12925   5.166   4.178   5.855 -0.0557  0.0878 -0.5883
 3055WAT     H112926   5.157   4.260   5.828 -0.1117  0.1937 -0.2581
 3055WAT     H212927   5.097   4.167   5.908  1.9054  1.0714  2.4136
 3055WAT    EPW12928   5.154   4.188   5.859  0.0307 -0.2367 -0.8083
 3056WAT      O12929   1.837   3.632   0.828 -0.3049 -0.0303  0.1397
 3056WAT     H112930   1.786   3.694   0.863 -0.2428 -0.2209  0.5771
 3056WAT     H212931   1.917   3.667   0.830 -0.6652  1.2046 -2.6472
 3056WAT    EPW12932   1.841   3.647   0.833  0.4229 -0.4580  0.0328
 3057WAT      O12933   5.444   0.003   6.976  0.1914  0.1515 -0.1007
 3057WAT     H112934   5.519   0.018   7.017 -1.0988  2.6955  1.5360
 3057WAT     H212935   5.389   0.063   7.008 -2.3912 -1.1257 -1.7196
 3057WAT    EPW12936   5.447   0.014   6.987 -0.2256  0.5085  0.2678
 3058WAT      O12937   6.597   4.618   7.297  0.2110 -0.0799 -0.0689
 3058WAT     H112938   6.624   4.695   7.325  1.7678 -0.4001 -0.6030
 3058WAT     H212939   6.629   4.613   7.216 -0.0390 -1.1926 -0.1204
 3058WAT    EPW12940   6.606   4.628   7.289 -0.3130  0.3243  0.5532
 3059WAT      O12941   4.750   5.937   6.983 -0.4329  0.3636  0.4839
 3059WAT     H112942   4.725   5.886   6.917  0.7575  2.1077 -1.4694
 3059WAT     H212943   4.676   5.980   7.004 -1.1207 -1.1251  1.2367
 3059WAT    EPW12944   4.735   5.936   6.976  0.4508 -0.3420  0.3327
 3060WAT      O12945   3.470   0.093   3.783  0.1473 -0.2684 -0.3466
 3060WAT     H112946   3.546   0.132   3.766  0.7761 -1.3688 -0.1578
 3060WAT     H212947   3.464   0.097   3.870  0.2815 -0.7087 -0.3169
 3060WAT    EPW12948   3.480   0.099   3.793  0.0896  0.8093  0.2848
 3061WAT      O12949   1.306   6.804   0.079 -0.7849  0.2814  0.4007
 3061WAT     H112950   1.385   6.769   0.092 -1.2075 -0.4918  1.0049
 3061WAT     H212951   1.322   6.876   0.032  0.0765 -1.1195 -1.6162
 3061WAT    EPW12952   1.320   6.809   0.074  0.1474  0.0670  0.5264
 3062WAT      O12953   1.974   2.526   0.055  0.0133 -0.1844 -0.0351
 3062WAT     H112954   2.058   2.513   0.073 -0.3587 -1.5972  0.8615
 3062WAT     H212955   1.975   2.562  -0.024  1.5016  1.1696  0.5593
 3062WAT    EPW12956   1.986   2.529   0.046 -0.2013  0.7787  0.2092
 3063WAT      O12957   0.957   0.124   0.755  0.1582 -0.2214  0.2094
 3063WAT     H112958   0.887   0.074   0.770 -0.0210 -0.2683 -0.7237
 3063WAT     H212959   0.924   0.205   0.759  0.0252 -0.2467 -0.3376
 3063WAT    EPW12960   0.942   0.129   0.758 -0.0858 -0.5106 -0.2704
 3064WAT      O12961   6.235   2.379   3.769 -0.3680 -0.1855 -0.0792
 3064WAT     H112962   6.208   2.296   3.778 -0.1027 -0.2020  0.6799
 3064WAT     H212963   6.206   2.418   3.842  0.4396  0.1220  0.0919
 3064WAT    EPW12964   6.226   2.372   3.781 -0.0198  0.1861  0.6186
 3065WAT      O12965   2.108   6.673   6.256  0.4700 -0.7431 -0.0887
 3065WAT     H112966   2.040   6.618   6.258  0.5785 -0.8618  1.3723
 3065WAT     H212967   2.078   6.741   6.210 -1.0001 -0.3873  1.2868
 3065WAT    EPW12968   2.093   6.675   6.250  0.3015 -0.4796 -0.7027
 3066WAT      O12969   4.039   7.159   4.287  0.7915  0.8457 -0.4755
 3066WAT     H112970   3.993   7.107   4.340 -0.4345  1.5477 -0.8074
 3066WAT     H212971   4.075   7.103   4.230  0.3461  0.2724 -0.2031
 3066WAT    EPW12972   4.037   7.143   4.287 -0.1996 -0.0149 -0.3176
 3067WAT      O12973   3.055   2.187   7.275 -0.1443 -0.3609  0.3846
 3067WAT     H112974   3.121   2.139   7.308 -0.8405 -1.9713 -0.4593
 3067WAT     H212975   3.080   2.269   7.292  2.0412 -0.8982  0.1700
 3067WAT    EPW12976   3.069   2.192   7.283 -0.2432 -1.2890  0.9192
 3068WAT      O12977   1.997   3.305   2.621 -0.0417 -0.3156 -0.3381
 3068WAT     H112978   1.910   3.314   2.624  0.0500  0.6529 -0.4199
 3068WAT     H212979   2.017   3.325   2.539  0.5037  1.9359  0.2869
 3068WAT    EPW12980   1.987   3.309   2.609 -0.1528 -0.1224 -0.1248
 3069WAT      O12981   3.125   4.094   5.376  0.3187  0.5145 -0.6331
 3069WAT     H112982   3.146   4.138   5.303 -0.4681  1.2287 -0.4319
 3069WAT     H212983   3.196   4.102   5.426  0.9305 -0.1157 -1.3684
 3069WAT    EPW12984   3.139   4.102   5.372  0.0227 -0.3698 -0.2101
 3070WAT      O12985   5.396   5.762   4.510 -0.1229 -0.4806 -0.1417
 3070WAT     H112986   5.388   5.776   4.425 -0.0087 -2.6057 -0.5508
 3070WAT     H212987   5.478   5.789   4.527  0.0557 -0.5804 -0.8186
 3070WAT    EPW12988   5.407   5.768   4.500 -0.2585 -0.1316  0.4267
 3071WAT      O12989   3.883   2.599   4.755 -0.8804 -0.1979  0.1012
 3071WAT     H112990   3.800   2.607   4.732 -1.1324  1.3330  1.3343
 3071WAT     H212991   3.884   2.529   4.807 -1.4150 -0.1844  0.1336
 3071WAT    EPW12992   3.871   2.590   4.759 -0.3596  0.5811 -0.0626
 3072WAT      O12993   4.462   6.028   7.585 -0.0190  0.4087  0.2962
 3072WAT     H112994   4.450   6.112   7.566 -0.4094  0.3356  0.2086
 3072WAT     H212995   4.528   6.005   7.533 -0.3218  0.5073 -0.1391
 3072WAT    EPW12996   4.470   6.037   7.574 -0.3601  0.1524 -0.3608
 3073WAT      O12997   4.325   4.177   6.089  0.1927  0.3029  0.4455
 3073WAT     H112998   4.280   4.220   6.028  0.5687  1.1439  0.7514
 3073WAT     H212999   4.286   4.099   6.092 -0.8581  0.8040  0.2876
 3073WAT    EPW13000   4.313   4.172   6.080  0.0138  0.4814 -0.0839
 3074WAT      O13001   1.877   5.569   4.520 -0.0362  0.2572  0.4811
 3074WAT     H113002   1.940   5.581   4.578 -0.7393 -0.0567  1.3247
 3074WAT     H213003   1.820   5.517   4.561 -0.2842 -0.4155 -0.6804
 3074WAT    EPW13004   1.878   5.563   4.534  0.4110 -0.1066  0.3819
 3075WAT      O13005   4.879   5.368   2.379  0.0077 -0.0719  0.2384
 3075WAT     H113006   4.827   5.316   2.332 -0.3504  0.2669  0.2504
 3075WAT     H213007   4.838   5.372   2.456  0.5761 -0.6053  0.5862
 3075WAT    EPW13008   4.865   5.361   2.384  0.2701  0.4637 -0.6536
 3076WAT      O13009   4.363   5.287   4.930 -0.3564  0.2019 -0.3682
 3076WAT     H113010   4.418   5.281   4.863  0.3568  3.4581 -0.2439
 3076WAT     H213011   4.294   5.328   4.898 -0.8724  0.0216  0.4611
 3076WAT    EPW13012   4.361   5.292   4.916 -0.1337 -0.0702 -0.7068
 3077WAT      O13013   5.074   5.407   3.520  0.6616  0.2184  0.2270
 3077WAT     H113014   5.001   5.388   3.564  0.7117  2.2886  1.3288
 3077WAT     H213015   5.048   5.406   3.436 -0.9173  1.7544  0.6298
 3077WAT    EPW13016   5.059   5.404   3.514  0.6871  0.0546 -0.1367
 3078WAT      O13017   5.406   5.882   4.270  0.5890  0.3840  0.0848
 3078WAT     H113018   5.435   5.849   4.195 -0.5340 -0.0154 -0.1884
 3078WAT     H213019   5.409   5.968   4.257 -0.1953  0.3140 -0.6774
 3078WAT    EPW13020   5.411   5.890   4.257 -0.2279 -0.3385  0.5945
 3079WAT      O13021   4.043   5.490   4.215 -0.2502  0.2273  0.0100
 3079WAT     H113022   3.967   5.528   4.195 -0.4186  0.6412  1.3315
 3079WAT     H213023   4.020   5.411   4.242  0.1554 -1.2533 -3.4516
 3079WAT    EPW13024   4.029   5.484   4.216  0.1872  0.2150 -0.3715
 3080WAT      O13025   3.328   0.695   0.264 -0.6557  0.1065  0.5314
 3080WAT     H113026   3.247   0.675   0.287 -1.3790  0.8468 -1.2734
 3080WAT     H213027   3.325   0.781   0.248  0.3091  0.0266 -0.1959
 3080WAT    EPW13028   3.316   0.705   0.265  0.2950 -0.7213 -0.4505
 3081WAT      O13029   4.842   0.456   1.407 -0.5800  0.1335  0.2885
 3081WAT     H113030   4.862   0.374   1.385 -0.6907 -0.5952  2.6155
 3081WAT     H213031   4.762   0.448   1.442 -1.0537  1.4515 -0.4259
 3081WAT    EPW13032   4.833   0.442   1.409  0.2109 -0.0330 -0.2890
 3082WAT      O13033   0.332   5.443   4.607  0.4021 -0.2413  0.5217
 3082WAT     H113034   0.351   5.520   4.571 -2.1818  0.5282  0.6132
 3082WAT     H213035   0.369   5.448   4.686  0.6887  0.6878  0.3491
 3082WAT    EPW13036   0.341   5.455   4.613 -0.3691  0.1177  0.0864
 3083WAT      O13037   0.025   1.724   5.535 -0.0583 -0.1010 -0.4612
 3083WAT     H113038   0.037   1.665   5.472 -0.1273 -0.2721 -0.3155
 3083WAT     H213039   0.047   1.681   5.608 -0.6528 -0.1294 -0.2922
 3083WAT    EPW13040   0.030   1.709   5.536 -0.3200 -0.7265  0.4747
 3084WAT      O13041   6.293   3.059   0.500 -0.3940  0.4474  0.3852
 3084WAT     H113042   6.260   3.098   0.571 -0.4181 -0.4125  0.8573
 3084WAT     H213043   6.258   3.105   0.434 -0.7205  0.9830  0.9180
 3084WAT    EPW13044   6.283   3.072   0.501 -0.2632  0.2008 -0.2608
 3085WAT      O13045   3.064   2.559   2.210 -0.0931 -0.1131  0.1969
 3085WAT     H113046   3.083   2.644   2.208 -0.0334 -0.1301  0.0105
 3085WAT     H213047   3.087   2.531   2.131 -1.4401 -0.0158 -0.2445
 3085WAT    EPW13048   3.071   2.568   2.198  0.1338 -0.2149 -0.5534
 3086WAT      O13049   2.669   3.504   5.195 -0.7044 -0.3359 -0.6635
 3086WAT     H113050   2.735   3.556   5.172 -1.1992  0.3523 -0.5544
 3086WAT     H213051   2.708   3.437   5.235 -0.2184  1.5469  2.3145
 3086WAT    EPW13052   2.685   3.502   5.197 -0.1022  0.3877  0.0758
 3087WAT      O13053   5.423   1.252   1.546  0.4293  0.3773  0.3409
 3087WAT     H113054   5.371   1.187   1.520  0.9125 -0.6359  1.7893
 3087WAT     H213055   5.465   1.276   1.473 -2.4515  1.6752 -1.0259
 3087WAT    EPW13056   5.422   1.246   1.532  0.0837  0.0322  0.3520
 3088WAT      O13057   0.790   0.307   1.729  0.3267  0.3059  0.2704
 3088WAT     H113058   0.806   0.392   1.724 -0.2261  0.4088  0.1693
 3088WAT     H213059   0.742   0.291   1.658  1.6418 -0.3802 -0.4906
 3088WAT    EPW13060   0.785   0.317   1.718 -0.5094 -0.1994  0.5411
 3089WAT      O13061   0.394   0.352   5.964  0.0561  0.5557  0.6865
 3089WAT     H113062   0.364   0.315   6.037 -0.0792  2.1703  1.4956
 3089WAT     H213063   0.323   0.360   5.914 -0.0939  0.6338  0.9108
 3089WAT    EPW13064   0.379   0.347   5.967  0.2640 -0.5345  0.3345
 3090WAT      O13065   5.868   5.569   0.014  0.2147  0.1782 -0.0729
 3090WAT     H113066   5.805   5.508   0.019  1.9547 -1.9967 -2.1613
 3090WAT     H213067   5.942   5.523   0.021  1.6559  1.9346 -2.2271
 3090WAT    EPW13068   5.870   5.553   0.016  0.6855  0.3685 -0.3054
 3091WAT      O13069   0.452   4.018   1.009 -0.6743  0.1412  0.6964
 3091WAT     H113070   0.420   3.970   0.944  1.0739  1.7557 -1.5627
 3091WAT     H213071   0.402   4.090   1.008  1.1327  1.4884 -1.0376
 3091WAT    EPW13072   0.440   4.022   0.999  0.0461 -0.0759 -0.0301
 3092WAT      O13073   6.755   5.654   3.368 -0.7485 -0.0770 -0.6537
 3092WAT     H113074   6.710   5.626   3.298 -1.8844 -0.9847  0.3894
 3092WAT     H213075   6.825   5.603   3.370 -1.8983 -1.7253  0.1842
 3092WAT    EPW13076   6.759   5.643   3.358  0.2781  0.2443  0.4636
 3093WAT      O13077   7.219   6.976   6.732  0.6035  0.0895  0.4984
 3093WAT     H113078   7.300   7.010   6.729  1.6272 -2.2144 -0.0119
 3093WAT     H213079   7.209   6.940   6.653 -1.4143  1.2510  0.1464
 3093WAT    EPW13080   7.230   6.976   6.720 -0.5324 -0.0659 -0.0140
 3094WAT      O13081   0.838   0.315   2.573 -0.9898  0.2026  0.4145
 3094WAT     H113082   0.791   0.277   2.635 -3.8640  0.7344 -1.2870
 3094WAT     H213083   0.829   0.401   2.589 -0.5096  0.3207  0.0957
 3094WAT    EPW13084   0.830   0.322   2.584 -0.5020 -0.9759  0.1599
 3095WAT      O13085   3.696   2.676   6.386  0.0459 -0.1830 -0.2957
 3095WAT     H113086   3.763   2.725   6.413  0.6707 -0.4588 -1.2959
 3095WAT     H213087   3.699   2.606   6.439  1.1622 -0.6473 -0.9478
 3095WAT    EPW13088   3.706   2.673   6.398 -1.4284  0.2196 -0.1263
 3096WAT      O13089   5.787   6.343   4.103 -0.3331 -1.0777  0.4806
 3096WAT     H113090   5.860   6.349   4.151 -0.2343 -1.8402  0.4411
 3096WAT     H213091   5.812   6.370   4.024 -0.3296 -0.4471  0.6973
 3096WAT    EPW13092   5.802   6.348   4.098 -0.1892  0.1226 -0.2911
 3097WAT      O13093   0.060   4.459   4.727  0.2552  0.3060  0.5077
 3097WAT     H113094   0.005   4.418   4.673 -0.0813  0.6657  0.5739
 3097WAT     H213095   0.089   4.395   4.779  1.8860 -0.3861 -1.1486
 3097WAT    EPW13096   0.056   4.444   4.726  0.2520 -0.0760  0.0587
 3098WAT      O13097   1.414   4.007   4.318 -0.2190 -0.3446  0.4329
 3098WAT     H113098   1.434   4.004   4.403  1.2225 -2.3863  0.1081
 3098WAT     H213099   1.492   4.001   4.279 -0.7632  1.4766 -1.0857
 3098WAT    EPW13100   1.429   4.006   4.325  0.4077 -0.2947  0.7473
 3099WAT      O13101   4.475   4.024   0.103 -0.3671  0.2376  0.1487
 3099WAT     H113102   4.559   4.037   0.084  0.6470 -0.7879  3.3013
 3099WAT     H213103   4.449   3.967   0.042  1.2134  0.5377 -0.8714
 3099WAT    EPW13104   4.483   4.017   0.091  0.3683 -0.0717  0.2898
 3100WAT      O13105   2.685   4.864   4.427 -0.2105  0.6354  0.1738
 3100WAT     H113106   2.659   4.945   4.408 -0.3155  0.3837 -0.8416
 3100WAT     H213107   2.760   4.875   4.470 -0.4012  1.2784  0.3433
 3100WAT    EPW13108   2.692   4.877   4.430  0.1039 -0.1760  0.4240
 3101WAT      O13109   6.695   1.996   2.401  0.0712  0.8974  0.5018
 3101WAT     H113110   6.726   1.917   2.381 -0.5980  0.4258  1.2341
 3101WAT     H213111   6.762   2.036   2.439  0.0295  0.1912  1.3385
 3101WAT    EPW13112   6.709   1.990   2.404 -0.1252 -0.1842 -0.0630
 3102WAT      O13113   3.176   4.141   0.448 -0.0744 -0.1205  0.3791
 3102WAT     H113114   3.110   4.087   0.468 -0.5812 -0.2203 -1.4083
 3102WAT     H213115   3.142   4.220   0.458 -0.8375 -0.1678 -1.5407
 3102WAT    EPW13116   3.161   4.144   0.453 -0.5706 -0.7294  0.0604
 3103WAT      O13117   3.340   5.780   7.319 -0.0271 -0.3080  0.0583
 3103WAT     H113118   3.392   5.712   7.340 -0.6236 -1.0327 -0.7483
 3103WAT     H213119   3.273   5.742   7.278 -0.7486  0.7105  0.2834
 3103WAT    EPW13120   3.338   5.764   7.316  0.0218  0.1769  0.3230
 3104WAT      O13121   2.098   4.531   4.967 -0.0700  0.2246  0.2628
 3104WAT     H113122   2.150   4.599   4.986  2.0472 -1.6438  1.8865
 3104WAT     H213123   2.115   4.475   5.032 -2.2576 -1.5854 -0.6003
 3104WAT    EPW13124   2.108   4.533   4.980 -0.1066 -0.2318  0.6225
 3105WAT      O13125   3.125   5.522   6.096  0.2437  0.0972 -0.0250
 3105WAT     H113126   3.122   5.574   6.166  0.3120  0.3537 -0.2078
 3105WAT     H213127   3.194   5.553   6.051 -0.8565  1.1118 -1.0887
 3105WAT    EPW13128   3.135   5.534   6.099  0.4293 -0.0482 -0.6166
 3106WAT      O13129   1.244   5.188   7.282 -0.3649 -0.0312 -0.4039
 3106WAT     H113130   1.307   5.248   7.276 -0.5253  0.1514 -0.2513
 3106WAT     H213131   1.178   5.221   7.237 -0.2111 -0.4163 -0.9289
 3106WAT    EPW13132   1.244   5.202   7.275  0.8277  0.4346  0.5864
 3107WAT      O13133   5.281   4.673   3.346  0.2154  0.5387 -0.0339
 3107WAT     H113134   5.221   4.657   3.284  1.0103 -0.9625 -0.4618
 3107WAT     H213135   5.357   4.669   3.304  0.7811 -0.5542  1.0183
 3107WAT    EPW13136   5.283   4.670   3.331  0.2405 -0.2145  0.5192
 3108WAT      O13137   2.688   3.693   3.127  0.1265  0.0433  0.0703
 3108WAT     H113138   2.748   3.756   3.137 -0.7577  0.6728  2.0178
 3108WAT     H213139   2.671   3.668   3.209 -1.3317 -1.0082 -0.5148
 3108WAT    EPW13140   2.694   3.699   3.140  0.0897 -0.2241 -0.1256
 3109WAT      O13141   7.190   6.845   6.490  0.3190 -0.1784 -0.1316
 3109WAT     H113142   7.106   6.822   6.499  0.2265 -0.3020 -1.1996
 3109WAT     H213143   7.234   6.777   6.522  0.0135 -0.3098  0.0103
 3109WAT    EPW13144   7.184   6.832   6.496 -0.8665  0.4262  0.2821
 3110WAT      O13145   1.323   0.411   7.398  0.0025 -0.1252 -0.1956
 3110WAT     H113146   1.359   0.364   7.462 -2.1185 -0.1630  1.0224
 3110WAT     H213147   1.295   0.350   7.342  0.9668 -0.1213 -0.7078
 3110WAT    EPW13148   1.324   0.395   7.399  0.0048 -0.1932  0.1513
 3111WAT      O13149   5.910   3.640   6.761 -0.2315  0.1472  0.2783
 3111WAT     H113150   5.995   3.653   6.751 -0.1081  0.0759  1.2314
 3111WAT     H213151   5.905   3.578   6.822 -0.9494 -0.4168 -0.3313
 3111WAT    EPW13152   5.922   3.633   6.768 -0.2988  0.3386  0.5621
 3112WAT      O13153   6.034   4.282   1.031 -0.2398  0.0746 -0.1288
 3112WAT     H113154   6.030   4.331   1.103  0.0483 -2.5653  1.8579
 3112WAT     H213155   5.952   4.283   1.001  0.1686  3.4935 -1.5846
 3112WAT    EPW13156   6.021   4.289   1.037 -0.0156  0.1024  0.0217
 3113WAT      O13157   4.726   5.305   0.234 -0.4420 -0.1200 -0.4543
 3113WAT     H113158   4.812   5.312   0.221 -0.0399 -1.0327  1.4395
 3113WAT     H213159   4.698   5.387   0.228  0.8405  0.4274  0.6249
 3113WAT    EPW13160   4.735   5.318   0.231  0.4267  0.1715  0.2188
 3114WAT      O13161   7.381   0.641   4.846 -0.1740  0.3761  0.2181
 3114WAT     H113162   7.332   0.661   4.915  1.3825  2.1975  0.9005
 3114WAT     H213163   7.357   0.560   4.826 -1.4701  0.2086  2.2006
 3114WAT    EPW13164   7.371   0.632   4.853  0.2533 -0.4415 -0.0792
 3115WAT      O13165   0.719   0.586   3.139 -0.4336 -0.3008 -0.2899
 3115WAT     H113166   0.735   0.637   3.207 -0.2831 -1.2000  0.3639
 3115WAT     H213167   0.682   0.640   3.081 -1.2802  0.3143  0.7925
 3115WAT    EPW13168   0.716   0.602   3.140 -0.3882 -0.1171  0.4874
 3116WAT      O13169   1.221   5.430   1.459  0.0035 -0.2438  0.4793
 3116WAT     H113170   1.146   5.386   1.452 -0.8520  1.0403  1.1749
 3116WAT     H213171   1.201   5.495   1.515  1.3634  0.6847 -0.0761
 3116WAT    EPW13172   1.207   5.433   1.466 -0.1182 -0.0186  0.0456
 3117WAT      O13173   3.100   6.309   1.879 -0.7146  0.8253 -0.4470
 3117WAT     H113174   3.130   6.227   1.876 -2.6842  0.0083  0.3523
 3117WAT     H213175   3.136   6.347   1.809 -0.9941 -1.1930 -1.7760
 3117WAT    EPW13176   3.109   6.303   1.868  0.3346  0.1381 -0.0811
 3118WAT      O13177   6.497   1.357   5.289  0.5838  0.1292  0.7567
 3118WAT     H113178   6.418   1.382   5.260  0.0608 -1.8751  0.3012
 3118WAT     H213179   6.505   1.400   5.365 -0.6725  0.8676  0.4999
 3118WAT    EPW13180   6.486   1.367   5.296 -0.1994 -0.4988  0.1025
 3119WAT      O13181   1.598   0.205   5.652  0.3037  0.2942 -0.0334
 3119WAT     H113182   1.663   0.167   5.608  0.7082  0.2194  0.6164
 3119WAT     H213183   1.526   0.172   5.614  0.6171  0.8317 -1.1505
 3119WAT    EPW13184   1.597   0.194   5.640 -0.5730  0.1905  0.2755
 3120WAT      O13185   1.934   0.394   2.787  0.3313 -0.7397  0.4441
 3120WAT     H113186   2.019   0.376   2.773  0.4718  0.2186 -0.0571
 3120WAT     H213187   1.926   0.386   2.873  0.5375 -2.3863  0.3478
 3120WAT    EPW13188   1.946   0.390   2.798  0.0058  0.2915  0.1778
 3121WAT      O13189   2.589   6.517   5.310  0.0958 -0.5716  0.8340
 3121WAT     H113190   2.581   6.589   5.260 -1.6548  0.1426  2.0350
 3121WAT     H213191   2.572   6.452   5.254 -0.8433  0.1386  0.2506
 3121WAT    EPW13192   2.585   6.518   5.294 -0.1365 -0.6286  0.0035
 3122WAT      O13193   5.461   0.744   2.869  0.1359 -0.6775 -0.1701
 3122WAT     H113194   5.543   0.758   2.843 -0.7147  1.3337 -2.0503
 3122WAT     H213195   5.458   0.784   2.947  0.0974  2.5855 -1.6702
 3122WAT    EPW13196   5.473   0.752   2.877 -0.4940 -0.1130  0.2261
 3123WAT      O13197   5.897   6.303   7.329  0.3376 -0.1146 -0.2224
 3123WAT     H113198   5.848   6.307   7.256  1.2924 -2.3081 -1.0713
 3123WAT     H213199   5.915   6.218   7.336  1.2820  0.2191  1.9374
 3123WAT    EPW13200   5.892   6.291   7.319 -0.0360  0.0793 -0.3501
 3124WAT      O13201   2.230   5.770   2.840 -0.7354 -0.1837  0.4742
 3124WAT     H113202   2.304   5.746   2.800 -0.9140  1.2215 -0.8219
 3124WAT     H213203   2.210   5.701   2.889  0.3834 -1.3743 -0.6478
 3124WAT    EPW13204   2.238   5.756   2.841  0.1611  0.6686  0.0988
 3125WAT      O13205   2.377   2.357   6.065 -0.0700 -0.2080 -0.1224
 3125WAT     H113206   2.446   2.304   6.077  0.1451 -0.3358 -1.7349
 3125WAT     H213207   2.393   2.423   6.119  2.0129  0.3837 -1.3519
 3125WAT    EPW13208   2.390   2.359   6.075  0.5394  0.3795  0.1239
 3126WAT      O13209   1.165   0.766   2.644 -0.0777  0.2375 -0.0157
 3126WAT     H113210   1.246   0.785   2.618 -0.3835  1.1415 -0.3385
 3126WAT     H213211   1.141   0.701   2.592  0.2747  0.2769 -0.2274
 3126WAT    EPW13212   1.173   0.760   2.633 -0.0800  0.1491 -0.2830
 3127WAT      O13213   7.399   1.604   4.657  0.1525 -0.2842 -0.4870
 3127WAT     H113214   7.453   1.536   4.651 -0.0919 -0.4175 -1.2260
 3127WAT     H213215   7.430   1.660   4.598 -0.2240 -0.1569 -0.5662
 3127WAT    EPW13216   7.412   1.602   4.647 -0.7404 -0.1228 -0.1575
 3128WAT      O13217   0.066   5.653   1.406 -0.5887 -0.0816  0.1544
 3128WAT     H113218   0.084   5.568   1.401  0.3868  0.0960  0.4031
 3128WAT     H213219   0.068   5.670   1.491  0.8227  0.4934  0.0390
 3128WAT    EPW13220   0.069   5.643   1.417  0.3667 -0.1244  0.4825
 3129WAT      O13221   6.464   6.005   5.171 -0.0499 -0.0959  0.7142
 3129WAT     H113222   6.386   5.979   5.199 -0.3103 -1.2851 -0.9832
 3129WAT     H213223   6.445   6.067   5.113  0.3355  0.3350  1.0406
 3129WAT    EPW13224   6.450   6.011   5.167  0.1558  0.1521 -0.3246
 3130WAT      O13225   0.809   1.932   1.573  0.4375  0.2717 -0.1396
 3130WAT     H113226   0.755   1.869   1.545  0.4066  0.8014 -1.3139
 3130WAT     H213227   0.762   2.005   1.566  0.9110  0.5907 -0.0534
 3130WAT    EPW13228   0.794   1.933   1.568 -0.4900  0.1172 -0.1791
 3131WAT      O13229   5.503   0.435   2.319 -0.1200  0.2905  0.4651
 3131WAT     H113230   5.452   0.442   2.249 -1.5620  0.3317  1.4868
 3131WAT     H213231   5.459   0.475   2.382  0.4651 -0.9596  1.7454
 3131WAT    EPW13232   5.489   0.442   2.318  0.3366  0.0285  0.0011
 3132WAT      O13233   2.446   3.919   6.580  0.0853 -0.2780 -0.7263
 3132WAT     H113234   2.391   3.930   6.514 -1.1811 -2.0498 -0.0443
 3132WAT     H213235   2.483   3.842   6.563  2.7370  1.0025 -1.3601
 3132WAT    EPW13236   2.444   3.909   6.568  0.2808  0.2963 -0.4147
 3133WAT      O13237   2.853   2.637   6.129 -0.2744 -0.0457 -0.0528
 3133WAT     H113238   2.831   2.647   6.045 -1.9963  0.4700  0.4132
 3133WAT     H213239   2.851   2.551   6.141 -3.6355 -0.0881  0.2372
 3133WAT    EPW13240   2.849   2.626   6.118  0.3804  0.4526  0.2458
 3134WAT      O13241   4.634   7.217   4.648  0.7362  0.3039 -0.2438
 3134WAT     H113242   4.676   7.294   4.647  0.3041  0.8382  4.1652
 3134WAT     H213243   4.698   7.159   4.662  0.6211  0.4668  1.0420
 3134WAT    EPW13244   4.650   7.220   4.650 -0.3252 -0.2553  0.6689
 3135WAT      O13245   7.475   0.487   3.317  0.5438 -0.5012  0.1278
 3135WAT     H113246   7.429   0.474   3.244 -2.0525  0.9359  1.3493
 3135WAT     H213247   7.558   0.478   3.291 -0.1408  1.2999 -3.3434
 3135WAT    EPW13248   7.480   0.484   3.302  0.5614  1.0420 -0.2958
 3136WAT      O13249   5.575   2.899   0.194  0.5864  0.0571  0.5946
 3136WAT     H113250   5.555   2.815   0.183  0.5006 -0.2450  2.7619
 3136WAT     H213251   5.533   2.922   0.267 -0.5265  2.3964 -0.6598
 3136WAT    EPW13252   5.566   2.890   0.203 -0.0606 -0.1514 -0.1245
 3137WAT      O13253   0.223   1.164   2.332 -0.4076  0.0318 -0.2265
 3137WAT     H113254   0.308   1.166   2.352 -0.2711 -1.2430 -0.6025
 3137WAT     H213255   0.217   1.213   2.260  0.2137 -0.8413 -0.8814
 3137WAT    EPW13256   0.235   1.172   2.325 -0.5777 -0.2454  0.3521
 3138WAT      O13257   3.005   2.365   6.221 -0.0812 -0.2710  0.1656
 3138WAT     H113258   3.090   2.376   6.203 -0.0956 -1.6575 -0.9387
 3138WAT     H213259   2.999   2.380   6.306  0.7031  2.9377 -0.2343
 3138WAT    EPW13260   3.016   2.369   6.231 -0.7121 -0.6469 -0.6478
 3139WAT      O13261   6.587   5.288   7.188  0.4657 -0.2981  0.3932
 3139WAT     H113262   6.509   5.324   7.205  0.2467 -0.9145  0.7249
 3139WAT     H213263   6.631   5.302   7.262  0.5410 -0.2789  0.3436
 3139WAT    EPW13264   6.582   5.295   7.202 -0.3407  0.2555 -0.2562
 3140WAT      O13265   5.365   2.088   4.834  0.2095 -0.0379 -0.1432
 3140WAT     H113266   5.443   2.101   4.871 -0.3312  0.6399  0.8200
 3140WAT     H213267   5.309   2.108   4.898 -0.7557 -0.2046 -0.9143
 3140WAT    EPW13268   5.368   2.093   4.849  0.0407 -0.3311 -0.3044
 3141WAT      O13269   6.590   4.546   0.198 -0.5078  0.4989 -0.3172
 3141WAT     H113270   6.669   4.543   0.162 -0.5968  0.6622 -0.5260
 3141WAT     H213271   6.565   4.462   0.198 -1.1701  0.6627 -2.1279
 3141WAT    EPW13272   6.598   4.533   0.193  0.0754 -0.3719  0.0870
 3142WAT      O13273   4.184   0.996   2.846 -0.0148  0.0755 -0.6113
 3142WAT     H113274   4.164   1.080   2.851  0.8316  0.2879 -0.7724
 3142WAT     H213275   4.146   0.961   2.916  2.0635  1.0635  1.0807
 3142WAT    EPW13276   4.175   1.003   2.857  0.3342 -0.4453  0.0423
 3143WAT      O13277   5.291   0.925   0.991  0.0719 -1.3172  0.1463
 3143WAT     H113278   5.297   0.915   1.078  0.3780 -0.6089  0.2067
 3143WAT     H213279   5.355   0.873   0.961 -0.1103 -1.6583  0.3333
 3143WAT    EPW13280   5.302   0.916   1.000  0.5475  0.0364  0.6929
 3144WAT      O13281   1.045   3.876   4.895  0.1836  0.3283 -0.7749
 3144WAT     H113282   0.972   3.835   4.869  0.9774 -0.2859 -2.1100
 3144WAT     H213283   1.070   3.831   4.965 -0.9707  0.8657  0.0331
 3144WAT    EPW13284   1.038   3.864   4.902  0.4082  0.3875 -0.3630
 3145WAT      O13285   6.929   7.159   2.901 -0.0612 -0.2653  0.4839
 3145WAT     H113286   6.992   7.216   2.881 -0.1798 -0.3139 -0.0683
 3145WAT     H213287   6.881   7.202   2.960  0.0748  0.0600  0.3624
 3145WAT    EPW13288   6.931   7.174   2.907  0.2246  0.2946  0.5983
 3146WAT      O13289   2.860   5.904   1.594  0.5675 -0.3546 -0.6765
 3146WAT     H113290   2.916   5.960   1.557  2.2425 -0.4088  1.5976
 3146WAT     H213291   2.904   5.828   1.595  0.3786 -0.4806  0.8287
 3146WAT    EPW13292   2.875   5.901   1.589  0.2697 -0.0260  0.1658
 3147WAT      O13293   5.486   3.409   1.879 -0.5334 -0.3592  0.1093
 3147WAT     H113294   5.565   3.418   1.843 -0.5774 -1.3771 -0.2940
 3147WAT     H213295   5.440   3.473   1.843 -0.3071 -0.7558 -0.9327
 3147WAT    EPW13296   5.491   3.419   1.868  0.6908  0.5240 -0.6811
 3148WAT      O13297   6.438   5.467   6.757  0.0102  0.3390  0.4859
 3148WAT     H113298   6.509   5.518   6.756 -0.3126  0.7939 -0.3633
 3148WAT     H213299   6.383   5.509   6.704 -0.4268 -0.6660  0.1376
 3148WAT    EPW13300   6.441   5.481   6.749 -0.1837  0.0044 -0.0058
 3149WAT      O13301   2.098   2.368   6.063 -0.2892  0.0075  0.2251
 3149WAT     H113302   2.185   2.364   6.063 -0.2165  0.4658 -1.6259
 3149WAT     H213303   2.077   2.363   6.147  1.5482  0.4090  0.7582
 3149WAT    EPW13304   2.108   2.367   6.075  0.6725  0.1045  0.4177
 3150WAT      O13305   2.003   0.102   2.162  0.1579  0.1340  0.1577
 3150WAT     H113306   1.939   0.043   2.165 -1.4524  1.7092 -0.9295
 3150WAT     H213307   1.986   0.154   2.230  0.7211  0.1737  0.2744
 3150WAT    EPW13308   1.991   0.101   2.172 -0.0530  0.1935  0.0578
 3151WAT      O13309   2.011   4.242   5.524 -0.4586  0.7260  0.1359
 3151WAT     H113310   2.084   4.286   5.541 -0.8244  1.2115  0.5046
 3151WAT     H213311   1.989   4.270   5.444  0.4532 -0.4219 -0.5503
 3151WAT    EPW13312   2.018   4.253   5.515  0.1599 -0.2243  0.0721
 3152WAT      O13313   1.353   7.535   4.267  0.1698  0.6645  0.0073
 3152WAT     H113314   1.346   7.476   4.203  2.6660  0.3277 -0.0612
 3152WAT     H213315   1.388   7.605   4.227  1.5204  0.5375  0.9077
 3152WAT    EPW13316   1.357   7.537   4.252  0.0549 -0.6525 -0.0754
 3153WAT      O13317   6.492   0.960   0.845 -0.4667 -0.3001  0.2599
 3153WAT     H113318   6.475   0.989   0.765  0.5975  3.2139  1.1353
 3153WAT     H213319   6.556   0.901   0.832 -1.3100 -0.8820 -1.5345
 3153WAT    EPW13320   6.499   0.955   0.831 -0.2564 -0.0213  0.2336
 3154WAT      O13321   1.565   5.865   1.318  0.3166 -0.1381  0.4799
 3154WAT     H113322   1.507   5.844   1.379 -1.2809  0.2163 -0.8590
 3154WAT     H213323   1.585   5.948   1.337 -1.4004  0.5057 -0.3735
 3154WAT    EPW13324   1.560   5.875   1.330  0.0061  0.0661 -0.9465
 3155WAT      O13325   1.433   5.831   0.381  0.2042 -0.6096 -0.2324
 3155WAT     H113326   1.444   5.834   0.468  0.9843 -1.9800 -0.2477
 3155WAT     H213327   1.348   5.845   0.371  0.1301 -0.2375  0.7452
 3155WAT    EPW13328   1.422   5.833   0.393 -0.1996 -0.1875 -0.4326
 3156WAT      O13329   5.062   6.210   2.097  0.3361 -0.0840 -0.1635
 3156WAT     H113330   4.999   6.174   2.048  0.3015 -0.7927  0.3782
 3156WAT     H213331   5.024   6.218   2.175  0.8188 -0.2032  0.0853
 3156WAT    EPW13332   5.047   6.206   2.101  0.0350 -0.3449 -0.2531
 3157WAT      O13333   5.790   6.715   4.381  0.3838 -0.5504  0.3442
 3157WAT     H113334   5.858   6.763   4.352  1.2587 -1.7451  0.3310
 3157WAT     H213335   5.722   6.769   4.372  1.4417  1.0511  1.2501
 3157WAT    EPW13336   5.790   6.730   4.375  0.4327  0.7512  0.5942
 3158WAT      O13337   6.545   1.613   1.537  0.0760 -0.1240 -0.4887
 3158WAT     H113338   6.600   1.649   1.480  1.8165  0.0560  1.1969
 3158WAT     H213339   6.549   1.528   1.519  1.7599 -0.2450  0.2253
 3158WAT    EPW13340   6.554   1.606   1.526 -0.4782  0.3132 -0.2917
 3159WAT      O13341   5.454   3.853   5.028  0.3408 -0.0607  0.4249
 3159WAT     H113342   5.370   3.868   5.048  0.2169  0.7447 -0.6545
 3159WAT     H213343   5.496   3.872   5.102 -0.3346  0.4910  0.6736
 3159WAT    EPW13344   5.447   3.858   5.042 -0.4110  0.7238 -0.0025
 3160WAT      O13345   5.796   1.685   2.767  0.5018  0.8790  0.1211
 3160WAT     H113346   5.823   1.676   2.685 -0.0179  0.7120 -0.0346
 3160WAT     H213347   5.718   1.723   2.759 -0.3054 -0.6262  0.4295
 3160WAT    EPW13348   5.788   1.689   2.754 -0.2077 -0.0604 -0.4025
 3161WAT      O13349   3.171   1.022   4.118  0.1071  0.5354  0.2236
 3161WAT     H113350   3.175   1.040   4.203  1.3393  1.2153  0.0426
 3161WAT     H213351   3.216   1.088   4.081  0.5172 -0.3274 -0.8633
 3161WAT    EPW13352   3.178   1.035   4.125 -0.3734 -0.3176  0.0986
 3162WAT      O13353   2.969   3.321   5.425 -0.1967 -0.2936 -0.3332
 3162WAT     H113354   2.926   3.393   5.448  1.0426  1.0506 -1.9636
 3162WAT     H213355   3.049   3.332   5.458  0.1443 -0.6672 -0.9947
 3162WAT    EPW13356   2.974   3.333   5.433 -0.7271 -0.1937  0.5099
 3163WAT      O13357   5.911   6.007   1.378  0.0733 -0.6586  0.2502
 3163WAT     H113358   5.847   5.960   1.343  0.1059 -1.4961  1.2675
 3163WAT     H213359   5.904   5.990   1.463  0.6999  0.4338  0.5310
 3163WAT    EPW13360   5.900   5.998   1.385  0.3165 -0.1958 -0.3466
 3164WAT      O13361   2.207   5.179   1.242 -0.3564  0.2966  0.0249
 3164WAT     H113362   2.247   5.253   1.264 -1.9654  0.9019  1.1486
 3164WAT     H213363   2.137   5.207   1.198  0.2494 -0.7015 -1.6336
 3164WAT    EPW13364   2.202   5.194   1.239 -0.2550 -0.0853  0.7601
 3165WAT      O13365   6.434   0.095   3.127 -0.2928  0.2912  0.2422
 3165WAT     H113366   6.486   0.082   3.058  0.0653 -0.0759  0.5785
 3165WAT     H213367   6.469   0.165   3.166 -0.1956  0.1927  0.3320
 3165WAT    EPW13368   6.447   0.104   3.123  0.0376 -0.2738 -0.7234
 3166WAT      O13369   0.965   3.139   0.309 -0.1579 -0.7605 -0.4494
 3166WAT     H113370   0.958   3.103   0.230 -0.7241 -0.1602 -0.6841
 3166WAT     H213371   0.930   3.079   0.362  0.2643 -1.1847 -0.6420
 3166WAT    EPW13372   0.959   3.125   0.305  0.6843 -0.2496 -0.3200
 3167WAT      O13373   6.119   6.385   6.471  0.5877  0.3698  0.5342
 3167WAT     H113374   6.153   6.370   6.392 -1.5956 -1.2545 -0.1958
 3167WAT     H213375   6.059   6.446   6.456 -0.1592 -0.2770  0.8353
 3167WAT    EPW13376   6.115   6.392   6.457 -0.2264 -0.8007 -0.4028
 3168WAT      O13377   1.834   2.507   3.100  0.1502  0.1211  0.3782
 3168WAT     H113378   1.751   2.530   3.114  0.5344  0.7233  1.8333
 3168WAT     H213379   1.828   2.425   3.073 -1.0078  0.6617 -1.2099
 3168WAT    EPW13380   1.821   2.499   3.098  0.3529  0.0492 -0.1701
 3169WAT      O13381   4.757   2.331   4.417 -0.2450  0.3625 -0.0342
 3169WAT     H113382   4.805   2.258   4.412 -3.5893 -1.9875 -2.2886
 3169WAT     H213383   4.786   2.378   4.350  1.3830  0.8192  0.9356
 3169WAT    EPW13384   4.769   2.327   4.406 -0.5117 -0.1232  0.3867
 3170WAT      O13385   0.887   0.927   6.323 -0.1093  0.2553  0.6436
 3170WAT     H113386   0.959   0.972   6.304  0.5006 -0.0380  2.0889
 3170WAT     H213387   0.884   0.930   6.411 -1.3560 -0.5054  0.6492
 3170WAT    EPW13388   0.898   0.934   6.333  0.1415 -0.1721 -0.6783
 3171WAT      O13389   5.526   3.867   1.229  0.1764  0.4168 -0.6012
 3171WAT     H113390   5.546   3.950   1.211 -0.7065  0.7767 -0.0148
 3171WAT     H213391   5.596   3.823   1.201  1.1786  1.4652  0.1213
 3171WAT    EPW13392   5.539   3.873   1.223  0.2592 -0.4528 -0.4234
 3172WAT      O13393   5.787   3.163   5.796  0.2700 -0.5357  0.1247
 3172WAT     H113394   5.820   3.216   5.857  0.5329 -1.0024  0.3997
 3172WAT     H213395   5.705   3.149   5.823 -0.1911  0.6633 -0.5845
 3172WAT    EPW13396   5.780   3.169   5.809  0.1388 -0.1117 -0.0376
 3173WAT      O13397   7.549   2.975   7.252 -0.5638 -0.5073 -0.5601
 3173WAT     H113398   7.499   3.035   7.291  1.1882 -0.1002  1.2210
 3173WAT     H213399   7.526   2.901   7.293 -2.8121 -1.2382 -2.8354
 3173WAT    EPW13400   7.538   2.973   7.264 -0.1426 -0.1958  0.1456
 3174WAT      O13401   3.338   7.299   2.899 -0.2876  0.1094 -0.1737
 3174WAT     H113402   3.320   7.379   2.928 -0.3259 -0.7278  2.2918
 3174WAT     H213403   3.407   7.274   2.947  1.1514 -0.5564 -2.4281
 3174WAT    EPW13404   3.346   7.307   2.910  0.2503  0.5564  0.4532
 3175WAT      O13405   3.613   2.804   1.691  0.0321  0.2688  0.1153
 3175WAT     H113406   3.579   2.845   1.622 -2.1506 -4.1487 -1.8377
 3175WAT     H213407   3.699   2.805   1.675 -0.3822 -0.4192 -2.6990
 3175WAT    EPW13408   3.621   2.810   1.678  0.8721  0.0907 -0.0150
 3176WAT      O13409   2.704   2.140   1.574 -0.4237  0.1345 -0.1116
 3176WAT     H113410   2.683   2.212   1.530 -0.2840 -0.0700 -0.5231
 3176WAT     H213411   2.741   2.089   1.513 -2.9574 -1.4042 -0.5322
 3176WAT    EPW13412   2.706   2.143   1.559  0.0924 -0.2973 -0.3898
 3177WAT      O13413   6.524   0.023   5.640 -0.0228 -0.3147  0.0004
 3177WAT     H113414   6.480   0.087   5.679  0.2925 -0.2610  0.2740
 3177WAT     H213415   6.606   0.054   5.635  0.0428 -0.5237 -0.2494
 3177WAT    EPW13416   6.530   0.037   5.645  0.2555  0.3431  0.2301
 3178WAT      O13417   7.222   0.198   4.070  0.6007 -0.4834  0.4972
 3178WAT     H113418   7.299   0.223   4.102  0.4787  0.9915 -0.2480
 3178WAT     H213419   7.174   0.271   4.073 -1.0165 -1.5198  1.5809
 3178WAT    EPW13420   7.226   0.212   4.075 -0.3073  0.3441 -0.3420
 3179WAT      O13421   5.924   6.230   3.146  0.2394  0.0365  0.2054
 3179WAT     H113422   5.979   6.162   3.147 -0.9714 -1.0182  1.8054
 3179WAT     H213423   5.847   6.194   3.166 -1.0759  1.4520 -1.9182
 3179WAT    EPW13424   5.920   6.215   3.149 -0.0464 -0.0717 -0.1021
 3180WAT      O13425   1.713   1.156   0.181  0.2778  0.1087  0.9982
 3180WAT     H113426   1.779   1.179   0.233  1.8972  0.5007 -1.1049
 3180WAT     H213427   1.717   1.069   0.180 -0.3974  0.0373  2.2280
 3180WAT    EPW13428   1.723   1.146   0.188  0.7491 -0.1683 -0.2243
 3181WAT      O13429   0.355   4.439   0.541 -0.0287  0.4599 -0.3359
 3181WAT     H113430   0.359   4.522   0.515  1.3585  0.2152 -0.9913
 3181WAT     H213431   0.312   4.398   0.477  0.9125  0.3609 -0.9213
 3181WAT    EPW13432   0.349   4.445   0.528  0.2308  0.7665 -0.0993
 3182WAT      O13433   7.479   4.061   1.970 -0.3201  0.0598  0.2058
 3182WAT     H113434   7.521   4.118   2.021  1.4880 -0.2025 -0.8933
 3182WAT     H213435   7.466   4.107   1.896 -1.2539 -0.1371  0.2377
 3182WAT    EPW13436   7.483   4.076   1.966  0.2748 -0.2520  0.2517
 3183WAT      O13437   6.222   2.074   6.940  0.2492 -0.2261  0.2837
 3183WAT     H113438   6.305   2.058   6.917 -0.0637 -0.3904 -0.7616
 3183WAT     H213439   6.192   2.124   6.875  0.0171  1.3013  1.4840
 3183WAT    EPW13440   6.230   2.079   6.927  0.0019  0.6065  0.4717
 3184WAT      O13441   1.751   0.897   2.314 -0.3243  0.0022  0.5750
 3184WAT     H113442   1.718   0.848   2.250 -0.1928 -0.3513  0.7696
 3184WAT     H213443   1.832   0.915   2.287 -0.7507  1.0720 -0.0122
 3184WAT    EPW13444   1.758   0.892   2.301  0.1507 -0.4572  0.0525
 3185WAT      O13445   5.870   1.586   0.202  0.1178  0.3133  0.1597
 3185WAT     H113446   5.941   1.613   0.159  0.5981  0.8008  1.2399
 3185WAT     H213447   5.874   1.628   0.278  0.9358 -2.7214  1.9552
 3185WAT    EPW13448   5.881   1.596   0.207 -0.1593 -0.1762 -0.2969
 3186WAT      O13449   1.625   5.458   1.853 -0.2774 -0.2905 -0.0689
 3186WAT     H113450   1.661   5.487   1.927 -0.9486  0.2042  0.0698
 3186WAT     H213451   1.649   5.517   1.794  1.8021 -1.6131 -0.6866
 3186WAT    EPW13452   1.634   5.471   1.855  0.1042  0.5730 -0.3777
 3187WAT      O13453   3.482   2.955   0.337  0.1008  0.8842  0.0930
 3187WAT     H113454   3.421   2.909   0.293 -0.1132  0.8922  0.3811
 3187WAT     H213455   3.517   2.897   0.391  0.7747  0.7317 -0.4978
 3187WAT    EPW13456   3.478   2.940   0.338  0.2150  0.0167  0.2028
 3188WAT      O13457   5.984   3.826   1.971 -0.3418  0.2053  0.0793
 3188WAT     H113458   6.012   3.850   1.892  1.3228 -2.5023 -0.3099
 3188WAT     H213459   6.053   3.840   2.023 -0.4544 -0.5470  0.4535
 3188WAT    EPW13460   5.998   3.831   1.967  0.5582  0.1200 -0.4531
 3189WAT      O13461   1.539   2.309   0.464  0.2838 -0.7868  0.5482
 3189WAT     H113462   1.502   2.364   0.521  0.7581 -0.6908  0.7645
 3189WAT     H213463   1.566   2.360   0.399 -1.0207 -0.9888 -0.1877
 3189WAT    EPW13464   1.537   2.324   0.463  0.1600 -0.1282 -0.2254
 3190WAT      O13465   5.084   7.311   6.070  0.4583  0.3846  0.0147
 3190WAT     H113466   5.119   7.231   6.062  2.2273  1.1884 -0.8403
 3190WAT     H213467   5.136   7.349   6.129  0.7759  1.4934 -0.9631
 3190WAT    EPW13468   5.097   7.305   6.078  0.5829  0.0460  0.1926
 3191WAT      O13469   2.554   2.446   0.823  0.2527 -0.1743 -0.1003
 3191WAT     H113470   2.529   2.426   0.742  2.4341 -1.0245 -0.6298
 3191WAT     H213471   2.567   2.533   0.820 -2.2961  0.3053  0.1872
 3191WAT    EPW13472   2.552   2.456   0.810  0.0856  0.1121 -0.1062
 3192WAT      O13473   4.778   7.552   2.252 -0.5168 -0.4786  0.2109
 3192WAT     H113474   4.819   7.573   2.178  1.6273 -1.7345  0.9506
 3192WAT     H213475   4.829   7.586   2.314 -0.7931 -1.7457  1.1711
 3192WAT    EPW13476   4.791   7.560   2.251  0.1966  0.0112  0.3115
 3193WAT      O13477   4.417   3.080   6.136  0.0019 -0.4903 -0.1272
 3193WAT     H113478   4.385   3.149   6.179 -0.5301 -0.0843 -1.1208
 3193WAT     H213479   4.487   3.058   6.182 -0.9694 -0.5686  1.3511
 3193WAT    EPW13480   4.423   3.087   6.149  0.0651 -0.4512 -0.0180
 3194WAT      O13481   3.033   0.181   6.600  0.0611 -0.4046  0.2485
 3194WAT     H113482   2.975   0.240   6.571 -0.1285  0.1735  1.7276
 3194WAT     H213483   2.986   0.108   6.605 -1.0623  0.3894  2.9266
 3194WAT    EPW13484   3.017   0.179   6.596 -0.3173 -0.3395  0.0282
 3195WAT      O13485   5.210   4.737   0.436  0.5117 -0.2114 -0.2080
 3195WAT     H113486   5.194   4.660   0.399  0.6546 -0.3267 -0.0336
 3195WAT     H213487   5.289   4.759   0.405 -0.2291  0.6641 -1.5789
 3195WAT    EPW13488   5.219   4.729   0.426  0.0050  0.7007  0.5123
 3196WAT      O13489   2.852   5.396   6.766  0.0603 -0.6473  0.3843
 3196WAT     H113490   2.766   5.402   6.772  0.1050  0.1545  0.2769
 3196WAT     H213491   2.877   5.474   6.735  0.9840 -0.2630  1.9904
 3196WAT    EPW13492   2.843   5.408   6.762 -0.3364  0.5878 -0.2524
 3197WAT      O13493   2.130   0.847   4.675 -0.2587  0.2842  0.1567
 3197WAT     H113494   2.202   0.851   4.723 -0.7957  2.4207  0.9379
 3197WAT     H213495   2.123   0.928   4.643 -1.3702 -0.3618 -1.3441
 3197WAT    EPW13496   2.139   0.860   4.677  0.5587  0.3770 -0.3066
 3198WAT      O13497   4.298   4.716   1.591 -0.7724  0.1596 -0.4120
 3198WAT     H113498   4.266   4.711   1.510 -0.7676 -1.0929 -0.3491
 3198WAT     H213499   4.233   4.752   1.637 -0.4404  1.7782 -1.1255
 3198WAT    EPW13500   4.284   4.720   1.586  0.0363 -0.4301  0.8510
 3199WAT      O13501   4.611   7.167   0.100 -0.2249 -0.1411  0.8201
 3199WAT     H113502   4.618   7.251   0.076  0.5924  0.0012  1.5272
 3199WAT     H213503   4.641   7.124   0.031 -0.7834  0.1398  0.3944
 3199WAT    EPW13504   4.616   7.173   0.086  0.2325 -0.2553 -0.0934
 3200WAT      O13505   5.444   3.658   2.490 -0.1911  0.5863 -0.2146
 3200WAT     H113506   5.425   3.572   2.494 -1.9821  0.9476 -0.1225
 3200WAT     H213507   5.393   3.687   2.425 -0.3183  1.7479  0.3825
 3200WAT    EPW13508   5.434   3.649   2.481 -0.0118  0.5623  0.0559
 3201WAT      O13509   0.281   3.956   3.153  0.1152  0.0637 -0.1353
 3201WAT     H113510   0.214   4.012   3.159 -0.4634 -0.7102  1.2444
 3201WAT     H213511   0.297   3.952   3.068 -0.1772  1.9119 -0.3161
 3201WAT    EPW13512   0.273   3.964   3.141 -0.5312 -0.3918  0.8734
 3202WAT      O13513   0.390   2.231   3.292 -0.1541  0.2803 -0.5386
 3202WAT     H113514   0.403   2.219   3.207 -0.3412  1.5015 -0.7502
 3202WAT     H213515   0.403   2.151   3.326 -2.5213 -0.8003 -1.9618
 3202WAT    EPW13516   0.394   2.217   3.285  0.0612  0.2493 -0.3169
 3203WAT      O13517   2.082   2.786   2.205 -0.4288 -0.2336 -0.1596
 3203WAT     H113518   2.041   2.846   2.254 -1.7958 -0.7456 -0.6251
 3203WAT     H213519   2.105   2.725   2.262 -2.1735 -0.9126 -0.1061
 3203WAT    EPW13520   2.079   2.786   2.220  0.3983 -0.2652  0.3379
 3204WAT      O13521   5.495   1.069   0.261  0.2477 -0.3052 -0.4166
 3204WAT     H113522   5.413   1.074   0.289 -0.8570  0.4542 -3.3765
 3204WAT     H213523   5.517   1.153   0.247  1.6397 -0.4838  0.5298
 3204WAT    EPW13524   5.486   1.082   0.263 -0.1014 -0.0040 -0.3116
 3205WAT      O13525   3.898   2.938   1.398  0.3585 -0.0919  0.2575
 3205WAT     H113526   3.973   2.981   1.406  0.2380  0.2082 -0.2165
 3205WAT     H213527   3.923   2.858   1.372  0.4109  0.6260 -2.0719
 3205WAT    EPW13528   3.912   2.932   1.396  0.3784 -0.6368 -0.3333
 3206WAT      O13529   3.474   0.822   2.222  0.2959  0.0461  0.5263
 3206WAT     H113530   3.461   0.845   2.139 -2.1094 -0.3930  0.7222
 3206WAT     H213531   3.420   0.755   2.234 -0.4235  0.9397  2.7978
 3206WAT    EPW13532   3.464   0.816   2.211 -0.2051  0.6577 -0.0653
 3207WAT      O13533   5.081   5.144   5.681  0.2170 -0.0665  0.1134
 3207WAT     H113534   5.043   5.208   5.726  3.0272  1.0997  1.0281
 3207WAT     H213535   5.065   5.073   5.729 -2.6344 -0.1455 -0.7362
 3207WAT    EPW13536   5.073   5.143   5.695 -0.2243  0.0824 -0.2930
 3208WAT      O13537   6.561   2.718   0.555 -0.0708  0.1982 -0.0407
 3208WAT     H113538   6.509   2.706   0.486  1.1614  2.3141 -1.4554
 3208WAT     H213539   6.529   2.789   0.594  0.6138  0.3792  0.2110
 3208WAT    EPW13540   6.549   2.726   0.551 -0.4471  0.4631 -0.3326
 3209WAT      O13541   6.707   3.706   1.392  0.0566 -0.0830  0.7022
 3209WAT     H113542   6.732   3.706   1.309  0.3194 -0.0256  0.7811
 3209WAT     H213543   6.720   3.789   1.418 -1.1154  0.1939  0.4766
 3209WAT    EPW13544   6.712   3.719   1.384  0.0004 -0.0895 -0.4090
 3210WAT      O13545   0.281   0.314   3.682 -0.5426  0.0597  0.0382
 3210WAT     H113546   0.250   0.263   3.618  0.7895 -0.6566 -0.0711
 3210WAT     H213547   0.290   0.259   3.750 -1.5704  0.7299  0.7443
 3210WAT    EPW13548   0.278   0.298   3.683  0.7880  0.2040  0.4460
 3211WAT      O13549   7.273   0.162   0.712 -0.5971  0.0308  0.3482
 3211WAT     H113550   7.239   0.240   0.697  1.0389  0.5416 -0.9297
 3211WAT     H213551   7.303   0.136   0.634  3.4078  0.4174  1.5130
 3211WAT    EPW13552   7.273   0.169   0.699  0.2450 -0.0523  0.0132
 3212WAT      O13553   1.041   6.468   2.348  0.2096  0.0867  0.1413
 3212WAT     H113554   0.985   6.456   2.413 -1.3391 -2.6487 -1.4741
 3212WAT     H213555   1.074   6.388   2.334  0.7602  0.6157 -2.1177
 3212WAT    EPW13556   1.038   6.455   2.355  0.3405  0.1994 -0.4134
 3213WAT      O13557   4.455   3.289   5.898 -0.0729 -0.2128 -0.8613
 3213WAT     H113558   4.433   3.214   5.936  1.4765  1.1546  3.3155
 3213WAT     H213559   4.531   3.270   5.859  0.6078 -0.7676  0.6493
 3213WAT    EPW13560   4.463   3.275   5.898  0.0411  0.1922  0.4187
 3214WAT      O13561   0.682   1.364   4.653  0.5447  0.9282 -0.3765
 3214WAT     H113562   0.670   1.321   4.728 -0.6518  0.3614 -0.8647
 3214WAT     H213563   0.685   1.448   4.678  0.5382  0.7211  0.3345
 3214WAT    EPW13564   0.681   1.370   4.668  0.5508  0.2809  0.3049
 3215WAT      O13565   1.492   0.104   2.089  0.6841  0.7031  0.4393
 3215WAT     H113566   1.438   0.160   2.049  1.5115  1.8285  0.8569
 3215WAT     H213567   1.457   0.026   2.071 -1.4511  1.3983  1.1901
 3215WAT    EPW13568   1.479   0.101   2.081 -0.2446  0.1361 -0.1729
 3216WAT      O13569   0.694   1.768   7.276  0.4620 -0.3706 -0.5204
 3216WAT     H113570   0.761   1.740   7.227  1.1067 -0.0063  0.1445
 3216WAT     H213571   0.719   1.751   7.358 -2.1454 -4.5459 -0.3008
 3216WAT    EPW13572   0.708   1.761   7.281 -0.1049  0.1705  0.3935
 3217WAT      O13573   3.495   5.639   0.588  0.5944 -0.3904 -0.2676
 3217WAT     H113574   3.411   5.618   0.584  0.2319  0.3821  2.0256
 3217WAT     H213575   3.530   5.576   0.638  1.7036 -1.4309 -2.2189
 3217WAT    EPW13576   3.488   5.627   0.595  0.1239  0.5549  0.0319
 3218WAT      O13577   5.321   0.857   2.684  0.2712 -0.2476  0.1361
 3218WAT     H113578   5.311   0.936   2.720  0.1842 -0.4818  0.6354
 3218WAT     H213579   5.372   0.815   2.740  0.1281 -0.6209 -0.0099
 3218WAT    EPW13580   5.327   0.862   2.697 -0.0227  0.1148  0.0352
 3219WAT      O13581   1.357   5.034   3.957 -0.0325  0.4463 -0.3331
 3219WAT     H113582   1.337   5.027   4.041  1.8231 -3.6261  0.0244
 3219WAT     H213583   1.280   5.051   3.919 -1.3125  0.2759  1.9930
 3219WAT    EPW13584   1.342   5.035   3.964 -0.4851  0.1792 -0.5008
 3220WAT      O13585   3.765   5.672   0.031  0.4152  0.1498  0.3377
 3220WAT     H113586   3.827   5.662   0.092 -1.5568  0.0471  2.4350
 3220WAT     H213587   3.696   5.701   0.075 -2.3202 -3.3264 -1.1106
 3220WAT    EPW13588   3.764   5.675   0.046  0.6072 -0.3933 -0.6569
 3221WAT      O13589   6.843   5.357   3.057 -0.0654  0.7955  0.0108
 3221WAT     H113590   6.863   5.357   2.972 -1.2424  1.3560 -0.2797
 3221WAT     H213591   6.830   5.441   3.075 -2.2123  0.5019  0.1337
 3221WAT    EPW13592   6.844   5.370   3.047 -0.1787  0.2003 -0.1617
 3222WAT      O13593   5.696   3.350   6.230  0.2184  0.2292 -0.4101
 3222WAT     H113594   5.671   3.266   6.228  0.4680 -0.0290  2.5963
 3222WAT     H213595   5.621   3.393   6.241  0.3815 -0.0835  2.7939
 3222WAT    EPW13596   5.681   3.344   6.231 -0.4436  1.0138 -0.8839
 3223WAT      O13597   0.444   1.279   6.831  0.5486 -0.2401 -0.3173
 3223WAT     H113598   0.479   1.286   6.751 -0.0497  2.9269 -0.4206
 3223WAT     H213599   0.507   1.308   6.884  0.2611 -0.5003  0.1766
 3223WAT    EPW13600   0.458   1.285   6.827  0.5159  0.2966 -0.0206
 3224WAT      O13601   6.216   3.673   3.985  0.2720  0.1159  0.2916
 3224WAT     H113602   6.136   3.646   4.005  0.1064  0.1320 -0.3156
 3224WAT     H213603   6.243   3.617   3.924  0.1767  0.9050 -0.5043
 3224WAT    EPW13604   6.208   3.661   3.979  0.3064  0.3287  0.1876
 3225WAT      O13605   4.262   4.840   2.123  0.0128  0.1851 -0.3827
 3225WAT     H113606   4.288   4.767   2.164 -2.0748 -0.1004  0.5769
 3225WAT     H213607   4.324   4.854   2.064  1.2290 -1.5300  0.4105
 3225WAT    EPW13608   4.275   4.831   2.121 -0.1237  0.3699 -1.0170
 3226WAT      O13609   1.792   1.245   1.271  0.0449  0.4429 -0.3644
 3226WAT     H113610   1.714   1.257   1.309 -0.4546  0.2160 -1.2716
 3226WAT     H213611   1.836   1.317   1.291  0.7647 -0.7306  2.7911
 3226WAT    EPW13612   1.787   1.257   1.279  0.2849 -0.0293 -0.3067
 3227WAT      O13613   3.725   0.837   6.296 -0.5658  0.5729  0.0592
 3227WAT     H113614   3.676   0.773   6.331 -0.1320  0.3151  0.2023
 3227WAT     H213615   3.676   0.864   6.228 -0.9758  0.4250  0.2879
 3227WAT    EPW13616   3.710   0.831   6.291 -0.0919 -0.3579  1.0263
 3228WAT      O13617   3.283   3.799   0.697 -0.1763  0.7635  0.0989
 3228WAT     H113618   3.304   3.884   0.687 -2.5858  1.3262 -1.0177
 3228WAT     H213619   3.266   3.792   0.782  2.1775  0.7819  0.6340
 3228WAT    EPW13620   3.283   3.811   0.708  0.6761 -0.5635  0.6106
 3229WAT      O13621   2.156   2.258   1.102  0.0654 -0.7818  0.3751
 3229WAT     H113622   2.119   2.214   1.037 -0.0822  0.1759 -0.2053
 3229WAT     H213623   2.219   2.304   1.064 -0.9128  0.8506  0.6502
 3229WAT    EPW13624   2.160   2.258   1.087 -0.0084  0.0665  0.9135
 3230WAT      O13625   6.284   3.508   5.894 -0.5881  0.1524 -0.4985
 3230WAT     H113626   6.325   3.565   5.947 -1.8065  1.1665 -0.6051
 3230WAT     H213627   6.258   3.445   5.949  1.5627 -0.8417 -0.5076
 3230WAT    EPW13628   6.286   3.507   5.910 -0.4724 -0.3458 -0.4718
 3231WAT      O13629   1.326   5.201   2.291  0.0807  0.2425  0.1201
 3231WAT     H113630   1.250   5.239   2.274  0.7544  1.7092  0.2819
 3231WAT     H213631   1.331   5.137   2.232 -1.3075  0.0466  0.1776
 3231WAT    EPW13632   1.315   5.197   2.280 -0.0896  0.0684  0.4127
 3232WAT      O13633   5.843   2.896   0.151  0.3706  0.3950  0.2296
 3232WAT     H113634   5.763   2.904   0.186  0.6352  2.5992  0.4876
 3232WAT     H213635   5.842   2.954   0.085  1.4232 -0.2996 -0.4145
 3232WAT    EPW13636   5.831   2.906   0.146  0.0987  0.2877 -0.1500
 3233WAT      O13637   3.706   4.458   6.732  0.2020 -0.2823  0.5171
 3233WAT     H113638   3.774   4.463   6.787 -1.5336  0.7281  2.7463
 3233WAT     H213639   3.656   4.397   6.768 -0.6480 -0.1337 -0.3951
 3233WAT    EPW13640   3.709   4.450   6.746  0.1465  0.3061  0.1611
 3234WAT      O13641   0.395   1.247   6.287  0.2014 -0.2106  0.3750
 3234WAT     H113642   0.451   1.297   6.242 -0.1394 -1.0412 -1.0340
 3234WAT     H213643   0.435   1.236   6.364  0.4960  1.8112  0.5677
 3234WAT    EPW13644   0.409   1.253   6.292  0.4736  0.4900  0.5062
 3235WAT      O13645   0.695   6.483   4.037  0.2446 -0.3496  0.1630
 3235WAT     H113646   0.777   6.454   4.028  0.8617  1.1878  0.6254
 3235WAT     H213647   0.681   6.481   4.124  0.5037  1.2217  0.2599
 3235WAT    EPW13648   0.705   6.478   4.049 -0.5868  0.8816  0.1864
 3236WAT      O13649   5.605   3.146   0.051  0.0534 -0.4250  0.3392
 3236WAT     H113650   5.610   3.059   0.050  0.5161 -0.4017  0.5226
 3236WAT     H213651   5.616   3.169  -0.032  0.0065 -0.5360  0.3029
 3236WAT    EPW13652   5.607   3.137   0.039  0.3951 -0.3911 -0.1497
 3237WAT      O13653   2.354   4.052   1.839  0.2900 -0.3953  0.0686
 3237WAT     H113654   2.398   4.121   1.870  0.4279 -0.2488 -0.4319
 3237WAT     H213655   2.291   4.089   1.790  0.4772 -0.6207 -0.3477
 3237WAT    EPW13656   2.351   4.068   1.836  0.0121 -0.6496  0.2370
 3238WAT      O13657   2.252   3.777   2.253 -0.3747  0.0651 -0.7767
 3238WAT     H113658   2.303   3.842   2.283  0.4420 -0.6434 -0.6053
 3238WAT     H213659   2.299   3.741   2.189 -1.0146 -0.0883 -1.1736
 3238WAT    EPW13660   2.266   3.782   2.248 -0.0344  0.2764  0.1996
 3239WAT      O13661   6.432   3.868   4.767 -0.1107 -0.5806 -0.4968
 3239WAT     H113662   6.391   3.945   4.757  0.2880  0.0340  1.9371
 3239WAT     H213663   6.499   3.873   4.712  1.0315  1.7142  0.9550
 3239WAT    EPW13664   6.436   3.880   4.758  0.0524  0.2638  0.1025
 3240WAT      O13665   5.474   4.417   2.794  0.0983 -0.3049 -0.0954
 3240WAT     H113666   5.459   4.503   2.789  1.0955 -0.1711 -1.6995
 3240WAT     H213667   5.398   4.381   2.768  0.4821  0.1970 -2.0789
 3240WAT    EPW13668   5.460   4.424   2.789 -0.0097 -0.4649  0.0724
 3241WAT      O13669   5.416   1.085   3.789 -0.6994 -0.1050 -0.1691
 3241WAT     H113670   5.465   1.015   3.805 -0.7910  0.1295  1.2585
 3241WAT     H213671   5.467   1.135   3.739  0.5341  0.1347  1.2804
 3241WAT    EPW13672   5.431   1.082   3.784  0.3112  0.1327 -0.2117
 3242WAT      O13673   0.942   3.973   2.088 -0.0207 -0.8540 -0.5078
 3242WAT     H113674   0.992   3.917   2.044  0.4004  0.8927 -2.3515
 3242WAT     H213675   0.867   3.929   2.099 -0.5541 -1.0617 -3.9610
 3242WAT    EPW13676   0.938   3.958   2.083  0.2184 -0.1522  0.7056
 3243WAT      O13677   0.974   3.633   6.763 -0.5145  0.0047 -0.4636
 3243WAT     H113678   0.978   3.574   6.700  1.6748  0.6565 -1.0340
 3243WAT     H213679   0.994   3.708   6.722 -1.0033  0.7730  0.6453
 3243WAT    EPW13680   0.977   3.636   6.748 -0.3401 -0.2095  0.0201
 3244WAT      O13681   6.174   4.037   1.085  0.7667 -0.1971  0.1740
 3244WAT     H113682   6.130   4.111   1.072 -0.0193 -0.3565  1.7488
 3244WAT     H213683   6.238   4.041   1.025 -1.6461 -0.2601 -2.6333
 3244WAT    EPW13684   6.177   4.049   1.074  0.0687 -0.3534  0.2171
 3245WAT      O13685   7.545   2.084   2.989  0.1206 -0.6418  0.1623
 3245WAT     H113686   7.485   2.077   3.052  1.3646  0.7958  1.5686
 3245WAT     H213687   7.616   2.114   3.031  0.2986  2.8468 -2.2588
 3245WAT    EPW13688   7.547   2.087   3.005 -0.2987 -0.7049 -0.2109
 3246WAT      O13689   5.368   4.644   7.110 -0.5575 -0.4081  0.4532
 3246WAT     H113690   5.331   4.638   7.032 -1.6206 -0.7495  0.9658
 3246WAT     H213691   5.409   4.568   7.120 -0.5494 -0.4238  0.2871
 3246WAT    EPW13692   5.369   4.632   7.100 -0.3938 -0.4812  0.1065
 3247WAT      O13693   3.892   3.838   0.642 -0.3663  0.1178  0.4597
 3247WAT     H113694   3.813   3.875   0.643 -0.4957  0.1938 -2.5273
 3247WAT     H213695   3.937   3.890   0.589  0.7866 -1.5475 -0.2511
 3247WAT    EPW13696   3.887   3.851   0.634 -0.2045  0.3255  0.1844
 3248WAT      O13697   7.628   3.949   5.147  0.1900 -0.2196  0.7135
 3248WAT     H113698   7.597   3.928   5.068  1.7926 -2.4047  0.5808
 3248WAT     H213699   7.655   4.032   5.137  0.4544 -0.4863 -1.0914
 3248WAT    EPW13700   7.628   3.958   5.134 -0.3048 -0.6980 -0.6748
 3249WAT      O13701   0.574   0.444   3.314  0.1906 -0.6392  0.4308
 3249WAT     H113702   0.634   0.422   3.373  0.6156  2.0707  1.1270
 3249WAT     H213703   0.620   0.483   3.251 -0.6725  0.1454  0.2685
 3249WAT    EPW13704   0.590   0.447   3.313 -0.2133 -0.0632 -0.7524
 3250WAT      O13705   3.310   3.384   2.771  0.2728  0.1941 -0.4245
 3250WAT     H113706   3.336   3.302   2.755  2.2647  0.8019 -0.5111
 3250WAT     H213707   3.271   3.378   2.849 -1.5597 -1.1713 -1.3501
 3250WAT    EPW13708   3.308   3.371   2.780 -0.0372 -0.3763 -0.0626
 3251WAT      O13709   5.962   3.831   2.781 -0.4790  0.3328  0.0026
 3251WAT     H113710   5.953   3.878   2.854 -0.1691  0.1510  0.1579
 3251WAT     H213711   5.881   3.829   2.749 -0.6591  0.2414  0.4469
 3251WAT    EPW13712   5.949   3.838   2.787 -0.3626  0.2083  0.6006
 3252WAT      O13713   4.241   4.576   0.903 -0.3085  0.1981  0.5275
 3252WAT     H113714   4.317   4.535   0.917 -0.9203 -0.5040  2.0770
 3252WAT     H213715   4.185   4.534   0.956 -1.4231  1.7253  0.6469
 3252WAT    EPW13716   4.244   4.564   0.913 -0.5131  0.4759  0.3894
 3253WAT      O13717   6.357   4.491   7.280  0.1156 -0.2790 -0.4104
 3253WAT     H113718   6.443   4.483   7.289  0.0370 -4.2343 -1.5052
 3253WAT     H213719   6.327   4.479   7.361  0.5158 -0.4952 -0.2911
 3253WAT    EPW13720   6.365   4.488   7.293 -0.3622 -0.4057  0.4746
 3254WAT      O13721   6.553   2.867   4.065  0.0959 -0.6994  0.0553
 3254WAT     H113722   6.567   2.861   3.979 -1.9125 -1.1207 -0.2824
 3254WAT     H213723   6.594   2.796   4.097 -1.6183 -2.2262 -0.9412
 3254WAT    EPW13724   6.561   2.855   4.057  0.0221  0.0529  0.3731
 3255WAT      O13725   3.148   2.330   4.486  0.0472  0.3094  0.1078
 3255WAT     H113726   3.227   2.326   4.524  0.8387  2.8886 -1.0289
 3255WAT     H213727   3.167   2.347   4.403 -1.7380 -0.7901 -0.5785
 3255WAT    EPW13728   3.163   2.332   4.479  0.5548  0.0597 -0.1605
 3256WAT      O13729   4.630   2.167   6.222 -0.3445 -0.2307  0.1258
 3256WAT     H113730   4.585   2.172   6.147 -0.0753 -1.3006 -0.1127
 3256WAT     H213731   4.671   2.090   6.217  1.3372  0.5816  0.4389
 3256WAT    EPW13732   4.630   2.157   6.210 -0.8738  0.4248  0.2056
 3257WAT      O13733   6.776   0.882   6.053 -0.1808 -0.1273  0.1668
 3257WAT     H113734   6.715   0.925   6.008  0.3381 -0.0523 -0.4743
 3257WAT     H213735   6.735   0.859   6.127 -0.8421  0.3260 -0.0567
 3257WAT    EPW13736   6.761   0.885   6.057  0.1697 -0.1253 -0.7408
 3258WAT      O13737   3.894   3.230   7.527  0.3900 -0.2311 -0.1270
 3258WAT     H113738   3.922   3.181   7.594 -0.9966 -3.8013 -1.8598
 3258WAT     H213739   3.820   3.265   7.556  1.7929  1.7128  1.4151
 3258WAT    EPW13740   3.888   3.228   7.541 -0.0216  0.3980  0.2530
 3259WAT      O13741   5.446   0.070   1.510 -0.0651  0.0414 -0.2903
 3259WAT     H113742   5.373   0.047   1.551  0.9411  0.2926  1.7927
 3259WAT     H213743   5.491   0.113   1.571  2.1898 -0.8306 -1.2045
 3259WAT    EPW13744   5.442   0.073   1.525 -0.2494  0.0131  0.4323
 3260WAT      O13745   2.522   2.076   0.870  0.4330 -0.4015  0.0970
 3260WAT     H113746   2.505   2.148   0.824  0.7983 -0.0105  0.5630
 3260WAT     H213747   2.476   2.014   0.828 -1.1210  0.3694  0.5631
 3260WAT    EPW13748   2.512   2.077   0.857  0.0049  0.1670 -0.0542
 3261WAT      O13749   1.076   2.650   1.340 -0.3738  0.7146  0.4409
 3261WAT     H113750   1.068   2.564   1.352 -1.3192  0.4460 -1.6263
 3261WAT     H213751   1.036   2.684   1.410 -0.7190 -0.5434  0.8833
 3261WAT    EPW13752   1.069   2.643   1.352  0.8012  0.1180 -0.0103
 3262WAT      O13753   5.895   1.286   1.260 -0.0221 -0.0032  0.2786
 3262WAT     H113754   5.917   1.203   1.271  0.8005  0.2285  0.4977
 3262WAT     H213755   5.926   1.325   1.332  1.2620  0.7757 -0.6324
 3262WAT    EPW13756   5.903   1.280   1.272 -0.0598  0.7624 -0.1741
 3263WAT      O13757   3.946   5.761   3.592  0.4099  0.0419  0.4782
 3263WAT     H113758   3.877   5.761   3.646  0.8791  2.2443  1.1676
 3263WAT     H213759   3.913   5.728   3.518 -0.7743 -1.1240  1.4666
 3263WAT    EPW13760   3.931   5.756   3.589 -0.3174  0.3552 -0.1415
 3264WAT      O13761   3.359   5.156   6.742 -0.3237 -0.0435 -0.0845
 3264WAT     H113762   3.348   5.070   6.754 -0.7805  0.3574  3.3629
 3264WAT     H213763   3.284   5.190   6.771  0.9974  1.6181  1.6199
 3264WAT    EPW13764   3.346   5.148   6.748 -0.1726 -0.0985  0.4386
 3265WAT      O13765   0.381   4.793   4.851  0.4500  0.2258  0.2770
 3265WAT     H113766   0.431   4.742   4.801  1.4396  2.2732 -0.9546
 3265WAT     H213767   0.377   4.750   4.927  2.0904 -1.1546 -0.3657
 3265WAT    EPW13768   0.388   4.780   4.855 -0.5034  0.0572 -0.1432
 3266WAT      O13769   7.609   3.825   0.905 -0.2196  0.0636  0.4022
 3266WAT     H113770   7.559   3.774   0.855  2.0058 -0.0321 -1.9290
 3266WAT     H213771   7.635   3.772   0.970 -1.6900 -0.3385  0.6951
 3266WAT    EPW13772   7.606   3.810   0.908 -0.0310  0.2647  0.1806
 3267WAT      O13773   4.592   0.486   1.953 -0.3806  0.5661 -0.1438
 3267WAT     H113774   4.622   0.567   1.962  1.3494 -0.0384 -0.1516
 3267WAT     H213775   4.553   0.487   1.874  0.6114  1.1165 -0.6450
 3267WAT    EPW13776   4.590   0.498   1.942  0.4681  0.0706 -0.0450
 3268WAT      O13777   1.983   2.387   6.949 -0.1781  0.0858  0.1902
 3268WAT     H113778   2.053   2.379   7.001  0.4842 -1.2694 -0.8320
 3268WAT     H213779   1.935   2.317   6.969  0.3491 -0.7551 -1.3510
 3268WAT    EPW13780   1.986   2.375   6.959 -0.1778  0.7109  0.5828
 3269WAT      O13781   7.007   3.748   2.782 -0.3961 -0.5422  0.2208
 3269WAT     H113782   7.035   3.746   2.865  1.1014  1.3636 -0.1478
 3269WAT     H213783   6.960   3.821   2.778  0.0119 -0.3119 -0.7093
 3269WAT    EPW13784   7.004   3.759   2.794  0.2891  0.1538 -0.2105
 3270WAT      O13785   4.498   5.877   0.459  0.0250  0.1268 -0.3215
 3270WAT     H113786   4.445   5.835   0.513 -0.4426 -1.1623 -1.7076
 3270WAT     H213787   4.453   5.950   0.439 -0.0932  0.2770  0.4747
 3270WAT    EPW13788   4.483   5.882   0.464  0.2849  0.1785  0.2083
 3271WAT      O13789   5.371   5.448   5.727  0.4173 -0.2931 -0.4116
 3271WAT     H113790   5.454   5.425   5.740  0.2551 -0.8927 -0.4157
 3271WAT     H213791   5.330   5.417   5.797  0.3983  1.1556  0.2465
 3271WAT    EPW13792   5.378   5.440   5.739  0.0234  0.3687 -0.0100
 3272WAT      O13793   5.760   5.999   2.428  0.2687  0.0520  0.1583
 3272WAT     H113794   5.818   5.988   2.364 -0.2898 -2.2742 -0.0503
 3272WAT     H213795   5.727   6.079   2.413  1.4611  0.3050 -1.3409
 3272WAT    EPW13796   5.763   6.009   2.416 -0.0982  0.1905 -0.1224
 3273WAT      O13797   5.159   7.054   5.992 -0.0840  0.4490  0.2975
 3273WAT     H113798   5.167   7.010   6.067  1.3142  0.7071  0.3360
 3273WAT     H213799   5.235   7.038   5.951 -1.3667 -0.9442 -1.7871
 3273WAT    EPW13800   5.172   7.045   5.997  0.3168  0.3156  0.1721
 3274WAT      O13801   3.279   7.427   0.262  0.0950  0.2092  0.3071
 3274WAT     H113802   3.357   7.465   0.257  1.2222 -1.8360  1.3167
 3274WAT     H213803   3.264   7.421   0.348 -0.3491 -0.9728  0.1673
 3274WAT    EPW13804   3.288   7.432   0.274  0.1501  0.3700 -0.9012
 3275WAT      O13805   4.216   1.428   4.824  0.5164  0.4655 -0.1544
 3275WAT     H113806   4.265   1.432   4.752 -0.2976  2.0851 -0.6428
 3275WAT     H213807   4.170   1.502   4.823  0.2696  0.4066  1.8846
 3275WAT    EPW13808   4.217   1.439   4.813 -0.1576  0.6161 -0.5507
 3276WAT      O13809   0.547   7.290   7.142  0.1142  0.0586  0.3089
 3276WAT     H113810   0.524   7.206   7.146  0.6315 -0.1712 -1.0159
 3276WAT     H213811   0.631   7.290   7.165  0.2340  0.1562 -0.1293
 3276WAT    EPW13812   0.556   7.278   7.146 -0.2650 -0.0839  1.1012
 3277WAT      O13813   5.785   3.491   3.668 -0.3200 -0.6905 -0.4428
 3277WAT     H113814   5.734   3.555   3.697 -1.1408 -0.9806 -1.1863
 3277WAT     H213815   5.836   3.531   3.610 -0.9894 -0.7338 -1.0792
 3277WAT    EPW13816   5.785   3.506   3.664  0.0275  0.3595  0.4433
 3278WAT      O13817   2.969   1.618   5.746 -0.1221  0.3689 -0.1852
 3278WAT     H113818   2.989   1.693   5.707  1.1097  0.5807  0.7827
 3278WAT     H213819   2.884   1.625   5.763  0.0659  1.7058  0.2427
 3278WAT    EPW13820   2.959   1.630   5.743  0.1698  0.3813  0.6389
 3279WAT      O13821   2.963   3.983   0.309 -0.1647 -0.3516 -0.5501
 3279WAT     H113822   2.890   4.015   0.274 -0.6807  0.9484  1.5430
 3279WAT     H213823   2.950   3.990   0.395  1.6012 -2.0313 -0.0535
 3279WAT    EPW13824   2.950   3.989   0.317  0.5266  0.1585  0.0324
 3280WAT      O13825   5.745   2.411   0.880  0.2502  0.6267  0.5029
 3280WAT     H113826   5.783   2.390   0.956  1.1861 -1.0327 -0.3524
 3280WAT     H213827   5.749   2.336   0.835 -1.4955  1.1970 -0.6982
 3280WAT    EPW13828   5.751   2.397   0.885 -0.1918  0.6429 -0.0191
 3281WAT      O13829   7.160   5.152   6.785 -0.4690  0.3033 -0.3023
 3281WAT     H113830   7.236   5.162   6.742 -0.6883 -0.5161 -0.9128
 3281WAT     H213831   7.100   5.156   6.721 -0.8726  0.0248  0.0542
 3281WAT    EPW13832   7.163   5.154   6.769  0.3933 -0.0125  0.3639
 3282WAT      O13833   4.220   1.646   7.181  0.6623 -0.4407  0.4034
 3282WAT     H113834   4.290   1.658   7.231  0.5500 -1.0849  0.7231
 3282WAT     H213835   4.235   1.569   7.143  2.2521  1.3314 -3.0256
 3282WAT    EPW13836   4.233   1.636   7.183  0.1376 -0.2517  0.0908
 3283WAT      O13837   5.279   3.941   2.976  0.2362 -0.0310 -0.2506
 3283WAT     H113838   5.313   3.919   2.899 -0.6410 -1.6317 -0.2060
 3283WAT     H213839   5.199   3.971   2.956 -0.0479 -0.5777  0.0225
 3283WAT    EPW13840   5.272   3.942   2.962  0.4978 -0.4477 -0.0485
 3284WAT      O13841   3.156   6.555   3.103  0.0800  0.5441 -0.1365
 3284WAT     H113842   3.121   6.533   3.180  1.0533  0.2795  0.2429
 3284WAT     H213843   3.203   6.627   3.121 -1.0582  1.5149 -0.8537
 3284WAT    EPW13844   3.157   6.563   3.117  0.3132 -0.1735  0.0122
 3285WAT      O13845   5.779   6.185   0.181 -0.2942 -0.1669 -0.4428
 3285WAT     H113846   5.752   6.267   0.197 -1.1159 -0.0951 -2.0142
 3285WAT     H213847   5.855   6.181   0.223  0.0848  1.6407 -0.8393
 3285WAT    EPW13848   5.786   6.197   0.189 -0.7504  0.4837 -0.7991
 3286WAT      O13849   1.967   0.412   5.112 -0.0554  0.6279  0.0167
 3286WAT     H113850   2.036   0.464   5.123  1.0288 -1.0042  1.6492
 3286WAT     H213851   1.953   0.413   5.026  1.6097  1.5091 -0.2775
 3286WAT    EPW13852   1.975   0.420   5.101  0.2582  0.2958 -0.1031
 3287WAT      O13853   2.572   3.500   7.320 -0.4563  0.2375 -0.6419
 3287WAT     H113854   2.564   3.421   7.284 -2.9152 -0.1781  0.6470
 3287WAT     H213855   2.635   3.537   7.273  0.1462 -2.1481 -1.8730
 3287WAT    EPW13856   2.580   3.494   7.308  0.1220 -0.1292  0.0989
 3288WAT      O13857   4.262   1.548   5.626 -0.0912  0.3863  0.0815
 3288WAT     H113858   4.320   1.573   5.685  0.8801  0.7716 -1.0066
 3288WAT     H213859   4.232   1.472   5.657  1.3493 -0.0617  0.4210
 3288WAT    EPW13860   4.266   1.541   5.639 -0.1049  0.2395  0.5059
 3289WAT      O13861   2.670   0.298   2.873  0.5356 -0.6699 -0.3361
 3289WAT     H113862   2.709   0.264   2.944  0.0151 -1.7839 -0.5598
 3289WAT     H213863   2.643   0.377   2.900 -3.6184 -2.6298  2.2520
 3289WAT    EPW13864   2.672   0.305   2.888  0.2304  0.4269  0.4203
 3290WAT      O13865   6.932   1.239   2.422 -0.2904  0.7819 -0.2506
 3290WAT     H113866   7.008   1.219   2.383 -0.5557  1.0435 -0.9013
 3290WAT     H213867   6.923   1.324   2.408 -1.7431  0.3828 -2.0267
 3290WAT    EPW13868   6.942   1.249   2.414 -0.4301  0.3666 -0.6051
 3291WAT      O13869   5.665   5.388   0.117  0.1866 -0.3334  0.2155
 3291WAT     H113870   5.614   5.459   0.120  1.5391  0.7119 -0.4755
 3291WAT     H213871   5.645   5.352   0.041  0.4348  0.0615 -0.0426
 3291WAT    EPW13872   5.655   5.393   0.106  0.1370  1.0463 -0.8898
 3292WAT      O13873   1.692   5.247   5.920 -0.5643  0.3677  0.0244
 3292WAT     H113874   1.685   5.165   5.950  1.7033 -0.1355 -0.6390
 3292WAT     H213875   1.769   5.274   5.952 -0.1568  1.3779 -1.6848
 3292WAT    EPW13876   1.702   5.238   5.930 -0.8797 -0.1908 -0.0474
 3293WAT      O13877   6.060   6.431   0.417  0.4183 -0.2341 -0.2808
 3293WAT     H113878   6.124   6.470   0.373  1.9691  1.2808  3.0049
 3293WAT     H213879   5.988   6.460   0.377  1.5833 -0.9926 -3.2896
 3293WAT    EPW13880   6.059   6.441   0.404 -0.1947  0.0571  0.8487
 3294WAT      O13881   7.153   1.479   5.697 -0.1451 -0.0218 -0.3214
 3294WAT     H113882   7.108   1.449   5.766 -0.0194 -0.9471 -0.6284
 3294WAT     H213883   7.235   1.454   5.713 -0.0173  0.2426 -0.5448
 3294WAT    EPW13884   7.159   1.471   5.710 -0.3751  0.0488 -0.1593
 3295WAT      O13885   1.710   6.068   2.585 -0.0313  0.1047 -0.0720
 3295WAT     H113886   1.692   6.107   2.661  0.8954  0.0207  0.2035
 3295WAT     H213887   1.783   6.024   2.602  0.0825 -0.0573 -0.9690
 3295WAT    EPW13888   1.718   6.067   2.599 -0.5097  0.3120  0.1377
 3296WAT      O13889   0.532   4.294   3.966 -0.0222  0.4106 -0.2927
 3296WAT     H113890   0.476   4.228   3.975 -1.0134  1.3404  0.7273
 3296WAT     H213891   0.599   4.272   4.018  0.7290 -0.8363 -1.7280
 3296WAT    EPW13892   0.534   4.281   3.975 -0.6124 -0.2089 -0.8230
 3297WAT      O13893   4.226   5.554   0.934 -0.0415  0.2003 -0.3898
 3297WAT     H113894   4.168   5.491   0.917  0.7205 -0.2589 -1.3235
 3297WAT     H213895   4.253   5.536   1.014  0.0813 -0.5934 -0.6049
 3297WAT    EPW13896   4.221   5.542   0.943 -0.7786  0.4604  0.1355
 3298WAT      O13897   5.516   3.167   3.271  0.0462  0.1752  0.2632
 3298WAT     H113898   5.431   3.156   3.289 -0.1569  0.0881 -0.6643
 3298WAT     H213899   5.556   3.131   3.339 -0.6592 -0.5344  0.3269
 3298WAT    EPW13900   5.509   3.160   3.283 -0.0510  0.1281  0.2327
 3299WAT      O13901   5.325   0.858   1.262  0.2734  0.2791 -0.5930
 3299WAT     H113902   5.285   0.910   1.319 -0.2033 -0.0379 -0.6318
 3299WAT     H213903   5.262   0.803   1.236  0.7956 -0.4102 -0.4395
 3299WAT    EPW13904   5.310   0.857   1.266 -0.0871  0.1011  0.6231
 3300WAT      O13905   1.782   3.642   5.965 -0.0649 -0.1288 -0.4899
 3300WAT     H113906   1.802   3.677   6.042 -0.0235 -0.7671 -0.2080
 3300WAT     H213907   1.730   3.702   5.928 -0.6028 -0.1053  0.2972
 3300WAT    EPW13908   1.777   3.656   5.971  0.0140 -0.2922  0.3798
 3301WAT      O13909   6.462   6.566   2.091  0.3980 -0.7103 -0.0474
 3301WAT     H113910   6.398   6.560   2.149  0.7057  0.3670  0.4292
 3301WAT     H213911   6.453   6.646   2.059  1.9262 -0.2690  0.5457
 3301WAT    EPW13912   6.451   6.577   2.095  0.0201  0.1358 -0.3109
 3302WAT      O13913   6.523   7.432   2.509  0.3411  0.3153 -0.2342
 3302WAT     H113914   6.512   7.485   2.578  1.3168 -0.1012  0.2661
 3302WAT     H213915   6.589   7.380   2.534 -0.5254 -1.0967 -0.7300
 3302WAT    EPW13916   6.531   7.432   2.523 -0.2262  0.2042  0.1396
 3303WAT      O13917   5.866   6.622   0.305  0.7241 -0.3552  0.5698
 3303WAT     H113918   5.903   6.665   0.371  1.9632  0.1903 -0.4374
 3303WAT     H213919   5.817   6.683   0.266 -0.0917 -0.7031  1.0239
 3303WAT    EPW13920   5.864   6.637   0.309 -0.5605 -0.0650 -0.4122
 3304WAT      O13921   6.861   4.432   2.121  0.3987  0.5783  0.0241
 3304WAT     H113922   6.804   4.455   2.183  2.3931  0.4438  2.0694
 3304WAT     H213923   6.826   4.463   2.048 -1.2119  2.4391  1.4644
 3304WAT    EPW13924   6.848   4.440   2.120  0.1094 -0.7102  0.6003
 3305WAT      O13925   7.264   2.773   1.788 -0.2192 -0.0952 -0.3266
 3305WAT     H113926   7.197   2.760   1.841 -1.2589 -1.4961 -1.8618
 3305WAT     H213927   7.226   2.786   1.710  1.2530  0.1807 -1.0334
 3305WAT    EPW13928   7.249   2.773   1.784 -0.0892 -0.0284  0.2452
 3306WAT      O13929   6.802   6.450   6.911 -0.8339  0.0593 -0.4615
 3306WAT     H113930   6.857   6.395   6.951  0.4433  0.3156 -1.7686
 3306WAT     H213931   6.780   6.506   6.974  0.5323  0.0343  0.0872
 3306WAT    EPW13932   6.807   6.450   6.926 -0.2425 -0.2933 -0.1870
 3307WAT      O13933   2.776   0.100   1.090 -0.1634  0.1215  0.7764
 3307WAT     H113934   2.755   0.040   1.150  0.4063 -0.0336  0.8258
 3307WAT     H213935   2.837   0.148   1.130 -3.1073  3.1038  2.1645
 3307WAT    EPW13936   2.782   0.098   1.105 -0.3818 -0.2492  0.3614
 3308WAT      O13937   0.128   3.822   6.850 -0.2257 -0.7179 -0.6275
 3308WAT     H113938   0.083   3.765   6.898  0.4844 -0.6063  0.2045
 3308WAT     H213939   0.192   3.774   6.815  0.4968 -0.4272  0.2392
 3308WAT    EPW13940   0.131   3.807   6.852  0.3776  0.6054  0.3747
 3309WAT      O13941   0.588   5.118   2.260  0.0522  0.7916 -0.4514
 3309WAT     H113942   0.582   5.137   2.345  1.0041 -1.4787  0.2075
 3309WAT     H213943   0.666   5.150   2.238  0.5918 -0.1354  0.0293
 3309WAT    EPW13944   0.598   5.125   2.269  0.0438 -0.3444  0.3588
 3310WAT      O13945   0.629   3.966   7.401 -0.0593  0.4027  0.2854
 3310WAT     H113946   0.674   3.897   7.428  0.2872 -0.0842 -1.4410
 3310WAT     H213947   0.547   3.937   7.398  0.2065 -0.2971 -1.3852
 3310WAT    EPW13948   0.624   3.951   7.404  0.6130  0.1645 -0.4228
 3311WAT      O13949   6.570   4.685   1.878 -0.3802 -0.2642 -0.4820
 3311WAT     H113950   6.604   4.704   1.800 -2.0330 -2.1255 -1.7526
 3311WAT     H213951   6.490   4.654   1.859 -1.0130 -0.3864  1.9875
 3311WAT    EPW13952   6.563   4.683   1.863 -0.4332 -0.0446 -0.0262
 3312WAT      O13953   3.998   5.412   1.751  0.3665  0.4979 -0.3280
 3312WAT     H113954   4.039   5.367   1.814  0.5147  0.8211 -0.1951
 3312WAT     H213955   3.967   5.349   1.698  1.3883  0.2562 -0.6590
 3312WAT    EPW13956   3.999   5.396   1.752  0.4173  0.1591 -0.1857
 3313WAT      O13957   2.848   0.941   4.735 -0.1674  0.3718 -0.0944
 3313WAT     H113958   2.793   0.976   4.793 -1.2084 -2.1662  0.6075
 3313WAT     H213959   2.802   0.939   4.661  0.0929  0.9624 -0.2752
 3313WAT    EPW13960   2.833   0.946   4.733  0.4752  0.0315 -0.4776
 3314WAT      O13961   0.497   6.503   5.412  0.0116  0.0371  0.5382
 3314WAT     H113962   0.443   6.572   5.404  0.0210  0.1861  1.6086
 3314WAT     H213963   0.561   6.522   5.357  1.5274  2.4084  2.8370
 3314WAT    EPW13964   0.498   6.516   5.403  0.4768  0.5705 -0.2070
 3315WAT      O13965   5.998   5.582   6.012 -0.5585  0.2518  0.4876
 3315WAT     H113966   5.962   5.578   5.932  2.2888  0.8233 -0.9356
 3315WAT     H213967   6.014   5.667   6.023 -1.0456  0.2032  1.7985
 3315WAT    EPW13968   5.995   5.594   6.002 -0.6352 -0.1662  0.3178
 3316WAT      O13969   5.794   5.355   0.544 -0.4858  0.3096 -0.5686
 3316WAT     H113970   5.719   5.395   0.564  0.2205  1.7860 -0.6722
 3316WAT     H213971   5.772   5.298   0.482 -1.6166  0.2659 -0.1440
 3316WAT    EPW13972   5.780   5.353   0.537  0.1184  0.3041  0.9079
 3317WAT      O13973   2.472   5.816   0.627  0.6224 -0.0598  0.7713
 3317WAT     H113974   2.511   5.894   0.632 -0.1359  0.4194 -0.3447
 3317WAT     H213975   2.519   5.766   0.681 -0.9544  1.9631  4.3769
 3317WAT    EPW13976   2.485   5.820   0.636  0.9202 -0.2515 -0.0342
 3318WAT      O13977   2.296   2.422   5.803 -0.2850 -0.3723  0.6417
 3318WAT     H113978   2.326   2.414   5.885 -2.2151 -1.0292  1.3476
 3318WAT     H213979   2.318   2.346   5.766  0.7168 -0.0186  0.4881
 3318WAT    EPW13980   2.304   2.410   5.810 -0.5882  0.0740  0.4479
 3319WAT      O13981   0.260   0.730   1.012 -0.1619 -0.3653 -0.4714
 3319WAT     H113982   0.195   0.672   1.016 -0.2419 -0.3865 -1.6313
 3319WAT     H213983   0.265   0.761   1.093 -1.2860 -0.7241 -0.2456
 3319WAT    EPW13984   0.251   0.726   1.024 -0.1543  0.1118 -0.2549
 3320WAT      O13985   6.219   1.513   4.276 -0.3195 -0.0303  0.0787
 3320WAT     H113986   6.191   1.548   4.201  1.7555  0.4853 -0.5114
 3320WAT     H213987   6.188   1.568   4.336  0.9653  1.6088 -0.6885
 3320WAT    EPW13988   6.210   1.526   4.274 -0.0366 -0.1569  0.6064
 3321WAT      O13989   4.604   6.078   6.775  0.1191 -0.7968  0.5201
 3321WAT     H113990   4.689   6.085   6.793  0.8895  3.3911 -3.0765
 3321WAT     H213991   4.565   6.099   6.850  2.3934  0.0117  1.5626
 3321WAT    EPW13992   4.610   6.082   6.789 -0.0222  0.5052  0.1357
 3322WAT      O13993   7.639   5.373   1.649 -0.3304  0.0860  0.3158
 3322WAT     H113994   7.663   5.301   1.606  1.7203  0.4841  0.6792
 3322WAT     H213995   7.603   5.343   1.722 -0.1155 -0.5904  0.1529
 3322WAT    EPW13996   7.637   5.358   1.653  0.1912 -0.7362 -0.3051
 3323WAT      O13997   6.074   0.578   5.287  0.1738  0.4379 -0.0078
 3323WAT     H113998   6.061   0.637   5.225  0.7993 -0.7402 -1.3303
 3323WAT     H213999   6.005   0.587   5.340 -0.6186  1.1631 -1.1237
 3323WAT    EPW14000   6.062   0.588   5.286 -0.4932  0.5916 -0.3204
 3324WAT      O14001   1.631   1.692   6.846 -0.0987  0.0410  0.0126
 3324WAT     H114002   1.652   1.776   6.834 -1.3010  0.3358 -0.1938
 3324WAT     H214003   1.682   1.650   6.790  0.7092  0.6116  0.3094
 3324WAT    EPW14004   1.641   1.699   6.836  0.2085  0.4874  0.8364
 3325WAT      O14005   5.547   5.771   3.106  0.2603 -0.1570 -0.4186
 3325WAT     H114006   5.479   5.732   3.068  1.1393 -0.6093 -1.5850
 3325WAT     H214007   5.616   5.729   3.074  1.1010  0.0880  0.9634
 3325WAT    EPW14008   5.547   5.759   3.096 -0.0750 -0.1002  0.4176
 3326WAT      O14009   0.795   0.791   1.445 -0.3087 -0.2113  0.0527
 3326WAT     H114010   0.848   0.828   1.386 -1.0702 -0.1265 -0.5986
 3326WAT     H214011   0.796   0.706   1.423 -1.2586 -0.0643 -0.6564
 3326WAT    EPW14012   0.803   0.784   1.433 -0.2335 -0.5065  0.3904
 3327WAT      O14013   6.016   1.745   0.899 -0.1365 -0.2016  0.2783
 3327WAT     H114014   5.969   1.745   0.972  0.0383  1.1411  0.4164
 3327WAT     H214015   6.000   1.667   0.864 -0.6945 -0.6273  1.4432
 3327WAT    EPW14016   6.007   1.734   0.905 -0.2507  0.1018  0.6410
 3328WAT      O14017   6.672   1.707   1.321 -0.1889  0.3260  0.2587
 3328WAT     H114018   6.750   1.743   1.306  0.5130 -0.3605  2.0475
 3328WAT     H214019   6.639   1.696   1.241  1.6199  0.4820 -0.5569
 3328WAT    EPW14020   6.679   1.711   1.307 -0.2108 -0.6256  0.3705
 3329WAT      O14021   5.770   0.417   0.977  0.9049 -0.3612 -0.2639
 3329WAT     H114022   5.839   0.420   0.924  0.3612 -0.6492 -1.0000
 3329WAT     H214023   5.714   0.365   0.935 -0.1419  0.6346 -0.1375
 3329WAT    EPW14024   5.772   0.410   0.963  0.7151 -0.0185  0.0266
 3330WAT      O14025   2.572   6.365   3.359  0.4724  0.0677  0.3282
 3330WAT     H114026   2.589   6.370   3.444  2.4456  0.8791 -0.0824
 3330WAT     H214027   2.508   6.423   3.347 -1.4886 -1.6612  1.5715
 3330WAT    EPW14028   2.565   6.374   3.369 -0.1137  0.3864  0.0453
 3331WAT      O14029   7.109   3.261   2.081 -0.3180 -0.1465  0.0299
 3331WAT     H114030   7.071   3.306   2.016  0.4580  1.6560  0.7617
 3331WAT     H214031   7.081   3.302   2.153 -0.0774 -1.2646  0.7864
 3331WAT    EPW14032   7.099   3.273   2.082 -0.6654 -0.1648  0.3906
 3332WAT      O14033   5.234   0.033   1.127 -0.5017 -0.5281  0.0005
 3332WAT     H114034   5.148   0.038   1.137 -0.3973 -0.0169  0.7549
 3332WAT     H214035   5.265   0.095   1.180  0.2782  0.2383 -1.2815
 3332WAT    EPW14036   5.226   0.043   1.136 -0.2260  0.0434  0.0169
 3333WAT      O14037   3.690   2.366   3.963 -0.0630 -0.2174  0.1100
 3333WAT     H114038   3.666   2.450   3.964  0.2249 -0.1200 -0.3787
 3333WAT     H214039   3.621   2.325   3.929 -0.0879 -0.1330  0.0583
 3333WAT    EPW14040   3.676   2.372   3.958  0.1082  0.4775  0.4692
 3334WAT      O14041   1.668   4.881   6.424 -0.0385 -0.4495 -0.0536
 3334WAT     H114042   1.586   4.873   6.453 -0.0921 -2.2472 -0.5520
 3334WAT     H214043   1.716   4.860   6.493  0.0204  0.4098  0.1808
 3334WAT    EPW14044   1.663   4.877   6.439 -0.1430  0.2848 -0.5135
 3335WAT      O14045   4.492   4.738   6.437 -0.2574  0.5918  0.2198
 3335WAT     H114046   4.435   4.786   6.482  0.7910 -0.2999  2.6812
 3335WAT     H214047   4.554   4.720   6.496  2.1853  0.8545 -2.1154
 3335WAT    EPW14048   4.493   4.742   6.453 -0.8451  0.1696  0.1536
 3336WAT      O14049   4.343   4.812   1.038 -0.8203  0.2684  0.0464
 3336WAT     H114050   4.303   4.743   1.002 -0.2104 -0.0139 -0.1112
 3336WAT     H214051   4.426   4.802   1.013 -0.4393  0.2393  1.2925
 3336WAT    EPW14052   4.349   4.800   1.029 -0.7539 -0.1613 -0.1963
 3337WAT      O14053   5.036   6.336   7.516  0.0106  0.2156  0.5437
 3337WAT     H114054   5.061   6.253   7.506  1.6180  0.7004  0.2057
 3337WAT     H214055   5.070   6.359   7.594  1.0033  1.0050 -0.0920
 3337WAT    EPW14056   5.044   6.327   7.526 -0.2050 -0.6431  0.2660
 3338WAT      O14057   6.015   5.129   6.442  0.2658  0.2050  0.1353
 3338WAT     H114058   6.083   5.154   6.393  0.3297  0.1659  0.2034
 3338WAT     H214059   5.953   5.187   6.423  0.8543  1.2812  1.3582
 3338WAT    EPW14060   6.016   5.141   6.432  0.1779  0.1194 -0.2413
 3339WAT      O14061   1.567   1.365   5.493 -0.1828  0.2103 -0.0674
 3339WAT     H114062   1.501   1.421   5.502 -0.8654 -0.1162 -2.2976
 3339WAT     H214063   1.531   1.297   5.451  1.2941 -0.5118 -0.2367
 3339WAT    EPW14064   1.552   1.364   5.488 -0.4505  0.8031  0.0640
 3340WAT      O14065   4.258   2.516   4.794 -0.2841 -0.1997 -0.1062
 3340WAT     H114066   4.215   2.440   4.789 -0.2255 -0.2038 -0.5763
 3340WAT     H214067   4.254   2.548   4.713  2.9962 -1.4836 -0.9255
 3340WAT    EPW14068   4.251   2.510   4.781  0.2003  0.2237  0.4241
 3341WAT      O14069   1.311   1.897   4.431 -0.0006 -0.3060  0.0332
 3341WAT     H114070   1.264   1.824   4.423 -0.7057  0.1935 -0.5203
 3341WAT     H214071   1.322   1.906   4.517  0.2731 -1.1774  0.0911
 3341WAT    EPW14072   1.306   1.888   4.443 -0.1759  0.1873 -0.5905
 3342WAT      O14073   4.203   1.321   7.538  0.3818 -0.3075 -0.4651
 3342WAT     H114074   4.162   1.244   7.536 -0.0891 -0.2027  2.2899
 3342WAT     H214075   4.142   1.376   7.566  1.1284  0.8218 -0.9785
 3342WAT    EPW14076   4.188   1.317   7.542 -0.4775 -0.1443  0.0825
 3343WAT      O14077   1.310   1.815   6.226  0.4021 -0.7582  0.3137
 3343WAT     H114078   1.304   1.900   6.209 -1.3566 -0.7782  0.6018
 3343WAT     H214079   1.395   1.798   6.220  0.9026  1.2263  1.2748
 3343WAT    EPW14080   1.321   1.825   6.222  0.0963  0.2012  0.8172
 3344WAT      O14081   6.009   5.611   5.426 -0.3675  0.7912 -0.2231
 3344WAT     H114082   5.924   5.621   5.408 -0.0343  1.2582 -1.6473
 3344WAT     H214083   6.035   5.691   5.450 -0.1166  0.8969 -0.8203
 3344WAT    EPW14084   6.000   5.624   5.427 -0.6034 -0.2980 -0.3107
 3345WAT      O14085   4.848   1.294   1.505 -0.5760 -0.2364 -0.0969
 3345WAT     H114086   4.855   1.315   1.589 -0.2741  1.2697 -0.4672
 3345WAT     H214087   4.928   1.267   1.483  0.0047  1.6290 -0.4394
 3345WAT    EPW14088   4.861   1.293   1.514  0.7801 -0.0795 -0.1569
 3346WAT      O14089   2.842   7.047   5.113  0.2157 -0.0028  0.0400
 3346WAT     H114090   2.755   7.040   5.110  0.2411 -0.4035  0.2426
 3346WAT     H214091   2.869   6.964   5.113  0.6049  0.1244 -0.2254
 3346WAT    EPW14092   2.833   7.034   5.113 -0.2353 -0.0756  0.1939
 3347WAT      O14093   0.448   4.932   6.424  0.0275 -0.0755 -0.3185
 3347WAT     H114094   0.453   4.996   6.364 -2.4246 -0.5447 -1.1190
 3347WAT     H214095   0.455   4.975   6.499 -3.5798  1.6356 -0.7196
 3347WAT    EPW14096   0.450   4.948   6.426  0.5436 -0.1979  0.5065
 3348WAT      O14097   5.256   5.983   4.624 -0.0753 -0.2308  0.0415
 3348WAT     H114098   5.307   5.920   4.590  0.3083  0.0841  0.0292
 3348WAT     H214099   5.217   6.018   4.554 -2.8104 -2.5587  0.2388
 3348WAT    EPW14100   5.258   5.979   4.609 -0.5673 -0.1161  0.0156
 3349WAT      O14101   3.400   2.323   4.646 -0.6432  0.7804 -0.3318
 3349WAT     H114102   3.405   2.406   4.672 -0.3397  0.9317 -0.8514
 3349WAT     H214103   3.465   2.316   4.588  0.0777 -0.1387  0.5372
 3349WAT    EPW14104   3.410   2.334   4.641 -0.2640 -0.2917  0.2280
 3350WAT      O14105   2.264   2.255   1.982  0.4808  0.1255  0.3266
 3350WAT     H114106   2.187   2.222   2.004 -0.8839  2.3334 -0.7779
 3350WAT     H214107   2.269   2.240   1.896  1.2700  0.0292  0.3828
 3350WAT    EPW14108   2.253   2.248   1.973  0.3738  0.4429  0.3927
 3351WAT      O14109   4.157   2.013   2.563  0.3890  0.0142 -0.2642
 3351WAT     H114110   4.096   1.972   2.610  1.7378 -0.0075  1.5813
 3351WAT     H214111   4.142   2.098   2.580 -0.8876  0.2245 -2.1492
 3351WAT    EPW14112   4.146   2.020   2.573  0.2129  0.9421  0.2121
 3352WAT      O14113   2.182   4.185   0.763 -0.2204 -0.0137 -0.1896
 3352WAT     H114114   2.244   4.151   0.815 -1.5324 -2.5073 -0.0925
 3352WAT     H214115   2.109   4.176   0.810 -0.7442  2.7687 -0.3379
 3352WAT    EPW14116   2.181   4.178   0.778  0.2583  0.7486 -0.1231
 3353WAT      O14117   6.783   6.057   6.916 -0.3854 -0.3795 -0.6689
 3353WAT     H114118   6.827   6.063   6.841  0.3478 -3.8312 -0.6776
 3353WAT     H214119   6.777   5.971   6.930  1.8734 -0.0586  4.6153
 3353WAT    EPW14120   6.788   6.046   6.907 -0.0468  0.1594 -0.4324
 3354WAT      O14121   5.275   2.265   7.114 -0.2784 -0.2486 -0.1299
 3354WAT     H114122   5.312   2.301   7.044 -0.1656 -0.1696 -0.0307
 3354WAT     H214123   5.194   2.298   7.113 -0.0861  0.2421  0.1235
 3354WAT    EPW14124   5.268   2.275   7.104 -0.2627  0.3042 -0.4283
 3355WAT      O14125   0.747   0.724   6.193  0.4814 -0.2348 -0.1500
 3355WAT     H114126   0.786   0.791   6.233  0.8131 -0.1125 -0.6739
 3355WAT     H214127   0.662   0.746   6.194  0.6024  0.2334 -0.4119
 3355WAT    EPW14128   0.740   0.737   6.199  0.0096 -0.1382 -0.2100
 3356WAT      O14129   5.062   4.695   4.232 -0.1591 -0.1194  0.3318
 3356WAT     H114130   4.982   4.672   4.256 -0.0489 -0.9114 -0.0322
 3356WAT     H214131   5.084   4.634   4.173  0.7275  0.0546  0.4725
 3356WAT    EPW14132   5.054   4.683   4.227 -0.1420 -0.2599  0.4980
 3357WAT      O14133   2.590   4.160   0.472 -0.1910  0.0721 -0.4989
 3357WAT     H114134   2.578   4.090   0.522  1.2295 -0.8621 -1.3821
 3357WAT     H214135   2.620   4.220   0.528  1.0541 -0.8452 -0.1219
 3357WAT    EPW14136   2.593   4.159   0.488 -0.1940 -0.0166 -0.0275
 3358WAT      O14137   4.832   2.565   0.491  0.3734 -0.1334  0.2046
 3358WAT     H114138   4.889   2.502   0.511 -0.2842 -1.1378 -0.9743
 3358WAT     H214139   4.831   2.565   0.404 -0.8612  0.3853  0.2006
 3358WAT    EPW14140   4.840   2.556   0.481  0.0036 -0.7691 -0.0432
 3359WAT      O14141   0.751   0.297   5.387 -0.2275  0.2715 -0.0906
 3359WAT     H114142   0.769   0.373   5.349  2.0507 -1.4114 -2.7252
 3359WAT     H214143   0.805   0.294   5.455  0.5752  0.5384 -0.6992
 3359WAT    EPW14144   0.761   0.307   5.391 -0.4186 -0.3393  0.0238
 3360WAT      O14145   5.243   2.872   1.951  0.0967  0.5578  0.0459
 3360WAT     H114146   5.297   2.910   2.007  1.0342  1.0283 -1.1502
 3360WAT     H214147   5.242   2.788   1.977  1.0011  0.6490  0.3875
 3360WAT    EPW14148   5.251   2.865   1.963  0.1990  0.2162 -0.6690
 3361WAT      O14149   2.915   6.435   5.843 -0.2032  0.4553  0.4964
 3361WAT     H114150   2.864   6.444   5.913 -1.0208 -0.2753  0.0207
 3361WAT     H214151   2.928   6.349   5.839 -1.1272  0.3460 -0.8921
 3361WAT    EPW14152   2.909   6.423   5.852 -0.1002 -0.0758 -0.1884
 3362WAT      O14153   5.220   2.462   6.719  0.0441  0.2027  0.2010
 3362WAT     H114154   5.223   2.481   6.634 -1.5834  0.1211  0.0834
 3362WAT     H214155   5.197   2.538   6.756  0.2650  0.1171  0.5179
 3362WAT    EPW14156   5.217   2.476   6.712  0.6520  0.0549  0.2790
 3363WAT      O14157   4.342   0.724   1.316 -0.2067 -0.3423  0.0666
 3363WAT     H114158   4.354   0.811   1.319 -0.0657 -0.3652  0.1879
 3363WAT     H214159   4.337   0.707   1.231 -0.6832 -0.1543  0.0553
 3363WAT    EPW14160   4.343   0.735   1.304 -0.0012 -0.0401 -0.0117
 3364WAT      O14161   0.089   5.307   0.182  0.2023 -0.0766 -0.0135
 3364WAT     H114162   0.019   5.254   0.184 -1.2384  1.6817 -0.7315
 3364WAT     H214163   0.095   5.334   0.265 -1.1129  1.0839 -0.2513
 3364WAT    EPW14164   0.079   5.303   0.195 -0.1335  1.0218  0.8071
 3365WAT      O14165   4.473   2.335   5.291  0.2113  0.1730 -0.1229
 3365WAT     H114166   4.489   2.307   5.210 -2.0278 -0.4478 -0.4240
 3365WAT     H214167   4.497   2.268   5.341 -2.0938 -1.1106 -0.6134
 3365WAT    EPW14168   4.479   2.321   5.286  0.7639  0.0503  0.5593
 3366WAT      O14169   0.437   1.221   5.382 -0.3193 -0.2139 -0.0115
 3366WAT     H114170   0.450   1.236   5.297 -1.5412 -1.0746 -0.3737
 3366WAT     H214171   0.502   1.167   5.403 -0.2461 -0.3220 -0.5041
 3366WAT    EPW14172   0.449   1.215   5.372  0.0158 -0.0085  0.2171
 3367WAT      O14173   0.906   5.557   6.867 -0.5398  0.0324 -0.4678
 3367WAT     H114174   0.849   5.544   6.802 -0.4579 -0.5650 -0.4336
 3367WAT     H214175   0.948   5.629   6.844 -0.2850 -0.3536 -1.2507
 3367WAT    EPW14176   0.904   5.565   6.854 -0.0108  0.0878  0.7768
 3368WAT      O14177   1.038   1.245   1.560  0.4334  0.1943 -0.1244
 3368WAT     H114178   0.990   1.182   1.523  0.3272  1.1628 -1.7307
 3368WAT     H214179   1.120   1.220   1.542  0.4014  0.3762 -0.5271
 3368WAT    EPW14180   1.043   1.232   1.552 -0.3177 -0.2366  0.4528
 3369WAT      O14181   0.773   0.758   7.366  0.5087 -0.3918  0.3302
 3369WAT     H114182   0.794   0.681   7.332  0.4571 -0.4105  0.3396
 3369WAT     H214183   0.685   0.756   7.367  0.4390  0.3046 -1.1778
 3369WAT    EPW14184   0.763   0.746   7.361 -0.8075  0.2918 -0.1035
 3370WAT      O14185   2.758   7.485   5.333  0.5366  0.0936  0.7209
 3370WAT     H114186   2.785   7.447   5.259 -0.5642 -1.2721  0.9957
 3370WAT     H214187   2.828   7.481   5.385  1.4121  1.3231 -0.3002
 3370WAT    EPW14188   2.772   7.479   5.330  0.3206  0.1978  0.3393
 3371WAT      O14189   0.963   2.579   5.462  0.0834  0.0661 -0.1441
 3371WAT     H114190   0.931   2.498   5.453  0.6251 -0.1839  0.1188
 3371WAT     H214191   0.897   2.623   5.498 -0.1833 -0.2835 -0.1987
 3371WAT    EPW14192   0.948   2.573   5.466  0.0905  0.4455  0.4955
 3372WAT      O14193   3.354   4.175   3.593 -0.3031 -0.3110 -0.0974
 3372WAT     H114194   3.284   4.142   3.553 -0.2543  0.3786 -0.7911
 3372WAT     H214195   3.419   4.161   3.536  0.0053 -0.4011  0.2718
 3372WAT    EPW14196   3.353   4.168   3.579  0.2397  0.2868  0.2344
 3373WAT      O14197   1.167   3.292   2.085 -0.5439 -0.4383 -0.3278
 3373WAT     H114198   1.102   3.239   2.060  1.0927 -2.3321 -0.8178
 3373WAT     H214199   1.214   3.303   2.013  0.8162 -0.8031  0.4677
 3373WAT    EPW14200   1.165   3.286   2.071  0.0490  0.3588  0.2130
 3374WAT      O14201   3.148   6.130   6.759  0.1402  0.2616 -0.2110
 3374WAT     H114202   3.173   6.055   6.796 -0.0923  0.5396  0.5184
 3374WAT     H214203   3.224   6.168   6.737  0.2893  0.1970  0.1846
 3374WAT    EPW14204   3.163   6.124   6.761  0.1339 -0.0662  0.5164
 3375WAT      O14205   3.981   5.868   4.245  0.0423  0.2919  0.0963
 3375WAT     H114206   3.977   5.810   4.310 -0.7909  0.3992  0.1575
 3375WAT     H214207   4.060   5.904   4.253  0.3433 -0.4285  0.4063
 3375WAT    EPW14208   3.992   5.865   4.256 -0.0565  0.3350 -0.1443
 3376WAT      O14209   0.942   7.342   7.591  0.1986  0.0428  0.3434
 3376WAT     H114210   1.028   7.327   7.594  0.6192  1.6043 -1.7298
 3376WAT     H214211   0.922   7.331   7.507 -1.6444 -0.2498  0.7793
 3376WAT    EPW14212   0.952   7.338   7.579  0.0288 -0.4482  0.0101
 3377WAT      O14213   0.921   6.311   7.490  0.5135  0.0122  0.2605
 3377WAT     H114214   0.901   6.228   7.471  2.0109 -0.1668 -0.7284
 3377WAT     H214215   0.913   6.315   7.577 -1.2838 -0.6615  0.1509
 3377WAT    EPW14216   0.917   6.299   7.500  0.0531  0.1894  0.1550
 3378WAT      O14217   7.585   4.436   4.303  0.0362  0.2651 -0.6948
 3378WAT     H114218   7.667   4.415   4.324 -0.1910  0.2817  0.2551
 3378WAT     H214219   7.582   4.522   4.315 -0.4720  0.0852  0.5757
 3378WAT    EPW14220   7.597   4.445   4.308 -0.1881  1.0008 -0.2582
 3379WAT      O14221   4.571   6.914   7.023  0.1140 -0.4078  0.0326
 3379WAT     H114222   4.490   6.887   7.041 -0.0233 -0.7184 -0.9963
 3379WAT     H214223   4.559   6.995   6.992  0.2583 -0.2394  0.4094
 3379WAT    EPW14224   4.557   6.922   7.021  0.6258  0.3008  0.1465
 3380WAT      O14225   3.054   6.084   4.757  0.2154 -0.1117  0.4378
 3380WAT     H114226   3.011   6.046   4.691  0.6870 -2.9195  1.6023
 3380WAT     H214227   3.097   6.150   4.718 -0.3849 -0.9588 -1.8343
 3380WAT    EPW14228   3.054   6.088   4.741  0.0729 -0.3437 -0.4995
 3381WAT      O14229   2.036   2.258   0.840  0.5472 -0.2031 -0.4670
 3381WAT     H114230   2.083   2.300   0.780 -0.9866  1.5310 -0.5472
 3381WAT     H214231   1.980   2.210   0.793 -0.7635  1.2792 -0.5260
 3381WAT    EPW14232   2.035   2.257   0.824  0.7459 -0.5037 -0.4201
 3382WAT      O14233   0.256   2.968   3.966 -0.5437 -0.8491  0.6258
 3382WAT     H114234   0.276   3.039   4.013  2.7019 -0.6667 -0.6987
 3382WAT     H214235   0.220   3.001   3.894 -1.9964 -0.8360  1.3384
 3382WAT    EPW14236   0.254   2.983   3.962  0.0868 -0.1530 -0.1736
 3383WAT      O14237   6.445   2.413   5.904  0.3188  0.1588  0.0748
 3383WAT     H114238   6.419   2.330   5.906  2.0444 -0.4349  0.1107
 3383WAT     H214239   6.506   2.417   5.966  1.6078  0.9251 -1.1572
 3383WAT    EPW14240   6.450   2.402   5.913 -0.4557 -0.1612 -0.4599
 3384WAT      O14241   3.924   0.141   3.334  0.0681  0.1717 -0.1763
 3384WAT     H114242   3.951   0.136   3.251 -1.7991  0.3397 -0.8354
 3384WAT     H214243   3.896   0.061   3.352  0.1966  0.2086  0.2068
 3384WAT    EPW14244   3.924   0.129   3.325  0.0201  0.0347 -0.3851
 3385WAT      O14245   4.716   4.169   0.801  0.6052 -0.1507 -0.1009
 3385WAT     H114246   4.794   4.188   0.834  1.2067  0.9218 -1.9986
 3385WAT     H214247   4.675   4.246   0.798 -0.1532 -0.5423 -0.0642
 3385WAT    EPW14248   4.722   4.183   0.805  0.4324  0.7461  0.1646
 3386WAT      O14249   2.180   0.537   2.178  0.3805  0.1692  0.4180
 3386WAT     H114250   2.218   0.458   2.171  0.9816  0.1776  2.7100
 3386WAT     H214251   2.149   0.537   2.260 -0.7871  1.8331  0.0135
 3386WAT    EPW14252   2.181   0.525   2.189  0.1817 -0.1816  0.7175
 3387WAT      O14253   3.457   6.620   3.498  0.4797 -0.2866 -0.1087
 3387WAT     H114254   3.456   6.570   3.570  0.7603 -0.8520 -0.4910
 3387WAT     H214255   3.407   6.688   3.520  1.1839 -0.0661  0.8853
 3387WAT    EPW14256   3.449   6.622   3.512  0.5833 -0.3107 -0.2833
 3388WAT      O14257   6.428   1.314   7.180  0.5316 -0.1398  0.4992
 3388WAT     H114258   6.464   1.393   7.173 -1.1061  0.5312 -1.7468
 3388WAT     H214259   6.485   1.262   7.138  1.1169  0.0180  1.0849
 3388WAT    EPW14260   6.442   1.318   7.173  0.4010 -0.3048 -0.2760
 3389WAT      O14261   6.498   2.220   3.766 -0.4856  0.0521  0.8218
 3389WAT     H114262   6.472   2.154   3.818  0.4977  0.1257  1.4294
 3389WAT     H214263   6.425   2.265   3.752 -1.5360 -2.0457 -0.9367
 3389WAT    EPW14264   6.483   2.217   3.772  0.2417 -0.3105 -0.0730
 3390WAT      O14265   6.285   5.563   1.080  0.2411  0.0043  0.4162
 3390WAT     H114266   6.211   5.540   1.040 -0.8360  1.0411  1.7202
 3390WAT     H214267   6.275   5.649   1.094  1.7017  0.1675  0.6080
 3390WAT    EPW14268   6.273   5.573   1.076  0.4063 -0.3230  0.1816
 3391WAT      O14269   2.672   4.694   0.584  0.0898 -0.6341 -0.3460
 3391WAT     H114270   2.646   4.611   0.592  0.1414 -0.5595  0.8131
 3391WAT     H214271   2.608   4.739   0.622  0.4333 -0.2122 -0.2605
 3391WAT    EPW14272   2.659   4.688   0.591  0.5534  0.5689 -0.2104
 3392WAT      O14273   1.707   3.396   0.123  0.0768  0.3926 -0.4815
 3392WAT     H114274   1.671   3.373   0.047 -1.1204  0.6971 -0.0266
 3392WAT     H214275   1.667   3.346   0.182  0.1819  0.9426  0.0784
 3392WAT    EPW14276   1.696   3.385   0.121  0.5099  0.1474 -1.1879
 3393WAT      O14277   7.294   0.155   2.771 -0.2823  0.0258  0.0134
 3393WAT     H114278   7.323   0.229   2.734 -0.7963  0.5146  0.5716
 3393WAT     H214279   7.282   0.102   2.703  1.4077 -0.0262 -0.2876
 3393WAT    EPW14280   7.296   0.158   2.756  0.4414  0.3980  0.1843
 3394WAT      O14281   0.854   3.782   3.045 -0.6088  0.2800 -0.0493
 3394WAT     H114282   0.789   3.762   2.990  1.1012  0.1378 -2.1828
 3394WAT     H214283   0.900   3.707   3.050 -0.2316  0.5630  0.8383
 3394WAT    EPW14284   0.851   3.768   3.038  0.2444 -0.1317  0.0593
 3395WAT      O14285   4.090   2.539   0.460 -0.0307  0.3603 -0.5602
 3395WAT     H114286   4.141   2.606   0.436  0.4564  0.4343  0.6194
 3395WAT     H214287   4.016   2.577   0.485  0.5251  0.5753  0.8812
 3395WAT    EPW14288   4.087   2.554   0.460  0.2390  0.5319 -0.4946
 3396WAT      O14289   6.188   4.091   6.425  0.4033  0.2101 -0.3217
 3396WAT     H114290   6.154   4.120   6.500 -0.9611 -1.0956 -0.3866
 3396WAT     H214291   6.169   4.005   6.426  1.5373 -0.0842 -1.5458
 3396WAT    EPW14292   6.180   4.082   6.436  0.0742 -0.0271 -0.0420
 3397WAT      O14293   4.770   5.458   1.969  0.0383  0.5770  0.1239
 3397WAT     H114294   4.708   5.458   1.907  0.2373  3.5143 -0.1986
 3397WAT     H214295   4.811   5.534   1.957  1.6760  0.1302  2.3493
 3397WAT    EPW14296   4.767   5.469   1.958  0.1192 -0.1989  0.0868
 3398WAT      O14297   7.196   4.544   5.500  0.9401 -0.0181 -0.0165
 3398WAT     H114298   7.168   4.535   5.418 -1.4784  2.7812  0.3032
 3398WAT     H214299   7.165   4.473   5.541  0.0577 -0.2715 -1.0791
 3398WAT    EPW14300   7.187   4.532   5.494  0.7277 -0.0879  0.2315
 3399WAT      O14301   4.193   1.056   2.098 -0.1025 -0.3691 -0.0947
 3399WAT     H114302   4.265   1.056   2.049  0.1575 -1.3095  0.2812
 3399WAT     H214303   4.220   1.027   2.175 -0.6434  0.4882  0.4253
 3399WAT    EPW14304   4.207   1.052   2.102  0.0199 -0.4671 -0.0359
 3400WAT      O14305   6.321   0.466   5.656 -0.0975  0.0088 -0.3743
 3400WAT     H114306   6.341   0.519   5.589  0.2356  0.3141 -0.0400
 3400WAT     H214307   6.234   0.467   5.657 -0.1028  1.4108  0.2877
 3400WAT    EPW14308   6.311   0.474   5.646  0.2654 -0.0008 -0.3163
 3401WAT      O14309   2.502   5.697   2.748  0.0039  0.3416 -0.2387
 3401WAT     H114310   2.557   5.678   2.813  2.9264 -1.6267 -2.9424
 3401WAT     H214311   2.543   5.762   2.706 -1.4241  1.0506 -0.5758
 3401WAT    EPW14312   2.516   5.704   2.751  0.0035 -0.2380 -0.0337
 3402WAT      O14313   3.520   6.259   4.624  0.1613 -0.1536 -0.4404
 3402WAT     H114314   3.441   6.282   4.654  1.0495  2.7088  0.0322
 3402WAT     H214315   3.532   6.179   4.657 -3.0753 -1.3848 -1.7510
 3402WAT    EPW14316   3.510   6.250   4.633  0.4136  0.5720  0.0805
 3403WAT      O14317   4.917   3.239   6.709 -0.3378 -0.3067  0.0891
 3403WAT     H114318   4.903   3.218   6.625 -0.6196  0.4273 -0.0587
 3403WAT     H214319   4.999   3.269   6.709 -0.6966  0.7419 -0.1598
 3403WAT    EPW14320   4.927   3.240   6.696  0.2620  0.1402 -0.4533
 3404WAT      O14321   3.298   2.415   6.257  0.0879  0.5356 -0.2990
 3404WAT     H114322   3.319   2.493   6.224  1.0867  0.5643  0.3821
 3404WAT     H214323   3.294   2.429   6.343 -2.4759  0.4542 -0.3386
 3404WAT    EPW14324   3.300   2.429   6.265 -0.0815  0.0066  0.0389
 3405WAT      O14325   5.257   5.825   1.921 -0.4424  0.1078 -0.0389
 3405WAT     H114326   5.198   5.828   1.857 -0.5532 -0.3425  0.0350
 3405WAT     H214327   5.225   5.878   1.982 -0.5465  0.2117 -0.1831
 3405WAT    EPW14328   5.244   5.833   1.920  0.1438 -0.9273  0.4079
 3406WAT      O14329   0.501   4.204   0.659  0.0554  0.5247  0.0121
 3406WAT     H114330   0.523   4.234   0.738  2.4976 -0.7363 -0.1177
 3406WAT     H214331   0.455   4.270   0.625 -2.7573  0.4129  3.0816
 3406WAT    EPW14332   0.497   4.218   0.665  0.9727 -0.1041  0.6539
 3407WAT      O14333   3.467   4.848   7.008 -0.5890 -0.2368 -0.1706
 3407WAT     H114334   3.510   4.917   6.975  0.5257 -1.8870 -2.4228
 3407WAT     H214335   3.525   4.813   7.063 -0.8162  0.0559  0.2688
 3407WAT    EPW14336   3.482   4.853   7.012 -0.7071  0.5350  0.3547
 3408WAT      O14337   1.529   4.899   3.794 -0.0380  0.2718 -0.1349
 3408WAT     H114338   1.514   4.930   3.713 -1.0946 -0.7192 -0.3457
 3408WAT     H214339   1.463   4.933   3.840 -1.7102 -2.1653 -0.5371
 3408WAT    EPW14340   1.517   4.909   3.789  0.2348  0.1690  0.6554
 3409WAT      O14341   4.548   1.246   0.868  0.4100  0.0460  0.0526
 3409WAT     H114342   4.616   1.294   0.842 -0.3054  0.4805 -1.1138
 3409WAT     H214343   4.568   1.165   0.841 -0.2792  0.4701 -1.9133
 3409WAT    EPW14344   4.561   1.241   0.860 -0.7506  0.4261 -0.1126
 3410WAT      O14345   4.543   0.821   2.636 -0.2596  0.1984  0.6410
 3410WAT     H114346   4.521   0.905   2.629 -0.1437  0.2186  0.5147
 3410WAT     H214347   4.566   0.799   2.554 -1.6835 -0.3480  0.3717
 3410WAT    EPW14348   4.543   0.830   2.623 -0.3502  0.3773 -0.3103
 3411WAT      O14349   5.624   1.666   6.446 -0.5287 -0.1123 -0.3591
 3411WAT     H114350   5.666   1.594   6.470 -2.8110 -1.0735  1.1235
 3411WAT     H214351   5.623   1.662   6.359  0.6906 -1.0551 -0.3419
 3411WAT    EPW14352   5.630   1.655   6.437  0.1987  0.0061 -0.0770
 3412WAT      O14353   5.571   2.148   1.341 -0.4343  0.4367 -0.5573
 3412WAT     H114354   5.540   2.193   1.273 -2.1385  0.0860 -0.0774
 3412WAT     H214355   5.533   2.186   1.409  0.7647  0.3931  0.1600
 3412WAT    EPW14356   5.561   2.160   1.341 -0.0089  0.4361  0.6037
 3413WAT      O14357   0.086   1.772   1.985 -0.2842 -0.0806  0.0177
 3413WAT     H114358   0.070   1.856   2.004 -0.6614 -0.0718 -0.3392
 3413WAT     H214359   0.172   1.771   1.969 -0.2702  0.2275  0.0660
 3413WAT    EPW14360   0.097   1.785   1.985 -0.2785 -0.0118 -0.2146
 3414WAT      O14361   5.175   4.804   0.997 -0.4079  0.0645 -0.4212
 3414WAT     H114362   5.223   4.798   0.925 -0.0714  1.1149 -0.2944
 3414WAT     H214363   5.203   4.877   1.035 -0.5421 -0.5020  0.8092
 3414WAT    EPW14364   5.186   4.814   0.992 -0.1707 -0.4930 -0.6521
 3415WAT      O14365   5.137   0.854   5.069 -0.5220  1.3521 -0.4468
 3415WAT     H114366   5.056   0.847   5.038  0.0169 -1.7168 -1.5011
 3415WAT     H214367   5.126   0.845   5.155 -1.2861  0.9713 -0.5753
 3415WAT    EPW14368   5.123   0.852   5.077 -0.0273 -0.4885  0.3687
 3416WAT      O14369   4.568   4.222   4.013 -0.3650 -0.8484 -0.1490
 3416WAT     H114370   4.562   4.159   4.073  1.5395 -0.8407  0.0922
 3416WAT     H214371   4.641   4.265   4.035 -2.3145  2.4594  0.6211
 3416WAT    EPW14372   4.578   4.219   4.025  0.5293  0.0266 -0.1347
 3417WAT      O14373   5.629   1.015   7.129 -0.1524 -0.1957  0.2244
 3417WAT     H114374   5.561   1.012   7.075  0.0273 -1.3008  0.0424
 3417WAT     H214375   5.608   1.078   7.185 -0.3628  0.9544 -1.0950
 3417WAT    EPW14376   5.616   1.024   7.129  0.1693  0.6703  0.2827
 3418WAT      O14377   3.732   5.287   6.548 -0.1205 -0.0111  0.1027
 3418WAT     H114378   3.662   5.247   6.514 -0.2923  1.1279 -0.9521
 3418WAT     H214379   3.700   5.328   6.618 -0.0889 -1.0542  0.7631
 3418WAT    EPW14380   3.717   5.287   6.553 -0.0687 -0.4809  0.0702
 3419WAT      O14381   5.549   5.442   0.560 -0.0924 -0.2761  0.1568
 3419WAT     H114382   5.526   5.368   0.519  1.4472 -0.4473 -0.4587
 3419WAT     H214383   5.509   5.504   0.514  1.9006 -0.4228 -1.9311
 3419WAT    EPW14384   5.539   5.440   0.547  0.1498  0.6064  0.4323
 3420WAT      O14385   0.505   0.270   5.474  0.0573  0.0390  0.3644
 3420WAT     H114386   0.589   0.284   5.457  0.0677 -0.7054 -0.2410
 3420WAT     H214387   0.506   0.209   5.536 -0.0289  1.0105  1.3619
 3420WAT    EPW14388   0.517   0.263   5.481  0.0992  0.2399 -0.2922
 3421WAT      O14389   3.426   5.995   7.166  0.4567  0.4936 -0.3025
 3421WAT     H114390   3.470   6.055   7.211  0.9563  0.9366 -1.3521
 3421WAT     H214391   3.423   5.927   7.221  0.0430  1.3904  0.8388
 3421WAT    EPW14392   3.432   5.994   7.181 -0.1009 -0.0613  0.2160
 3422WAT      O14393   1.473   5.739   6.982  0.0793  0.1196  0.2074
 3422WAT     H114394   1.496   5.804   7.035 -0.2561 -0.1856  0.7293
 3422WAT     H214395   1.387   5.733   6.992 -0.1611  0.7565 -1.1691
 3422WAT    EPW14396   1.464   5.748   6.991  0.0441  0.0010  0.6847
 3423WAT      O14397   2.944   2.144   1.117  0.1314  0.4718  0.1533
 3423WAT     H114398   2.903   2.221   1.111  2.5246  1.7972 -0.3696
 3423WAT     H214399   2.931   2.108   1.039 -1.3347  0.0887  0.5301
 3423WAT    EPW14400   2.936   2.150   1.105 -0.3382 -0.0716  0.3776
 3424WAT      O14401   7.199   3.441   4.841 -0.0402 -0.3095 -0.1557
 3424WAT     H114402   7.233   3.449   4.761 -0.0356  1.1080 -0.0380
 3424WAT     H214403   7.139   3.505   4.844 -0.7637 -1.0005  0.6218
 3424WAT    EPW14404   7.195   3.452   4.830  0.1339  0.4391 -0.2389
 3425WAT      O14405   6.346   1.157   4.718 -0.1078 -0.3868 -0.2034
 3425WAT     H114406   6.375   1.166   4.800  2.4174 -1.1838 -0.9310
 3425WAT     H214407   6.311   1.077   4.717  0.7902 -0.7953 -0.1181
 3425WAT    EPW14408   6.345   1.146   4.730 -0.3819  0.1311  0.2796
 3426WAT      O14409   0.185   3.259   7.425 -0.5564  0.0158  0.3664
 3426WAT     H114410   0.184   3.175   7.449 -2.8441 -0.2663 -0.5180
 3426WAT     H214411   0.243   3.295   7.480  0.7381 -2.1611  0.5575
 3426WAT    EPW14412   0.193   3.252   7.436  0.0425  0.4486  0.1463
 3427WAT      O14413   6.284   6.622   5.007 -0.6323 -0.3118  0.0164
 3427WAT     H114414   6.336   6.561   5.042 -2.6524 -1.5656  0.9767
 3427WAT     H214415   6.250   6.662   5.077 -2.1728 -0.6028 -0.5362
 3427WAT    EPW14416   6.287   6.619   5.022 -0.0239  0.5548 -0.2584
 3428WAT      O14417   2.242   6.467   6.798  0.6064 -0.0767 -0.0404
 3428WAT     H114418   2.199   6.392   6.781  1.4056 -1.3022  2.8109
 3428WAT     H214419   2.292   6.478   6.727 -0.5181 -1.4919 -1.1239
 3428WAT    EPW14420   2.243   6.458   6.785 -0.1522  0.1177 -0.2468
 3429WAT      O14421   4.351   2.637   6.582 -0.4022 -0.5301 -0.5812
 3429WAT     H114422   4.392   2.693   6.635 -1.1909  0.4800 -1.0022
 3429WAT     H214423   4.410   2.622   6.519 -0.4175  0.4297 -0.8548
 3429WAT    EPW14424   4.366   2.643   6.580 -0.8905  0.9324  0.7273
 3430WAT      O14425   4.566   7.162   6.891 -0.8120  0.4684  0.2340
 3430WAT     H114426   4.538   7.130   6.815 -1.2279 -1.7220  1.2159
 3430WAT     H214427   4.494   7.197   6.926 -0.5465  1.7945 -0.4734
 3430WAT    EPW14428   4.551   7.162   6.885 -0.6567  0.3055  0.3415
 3431WAT      O14429   3.797   1.051   2.631 -0.2541  0.8189  0.4462
 3431WAT     H114430   3.809   1.095   2.557 -1.0982 -0.1510 -0.2914
 3431WAT     H214431   3.863   0.994   2.633 -0.8632  0.0647 -0.1723
 3431WAT    EPW14432   3.808   1.049   2.621 -0.1460  0.0798 -0.0194
 3432WAT      O14433   3.429   0.043   0.823  0.5513  0.2495  0.0817
 3432WAT     H114434   3.392   0.093   0.885  1.2857  0.8742  0.0228
 3432WAT     H214435   3.461   0.101   0.767 -0.1092 -0.3166 -0.9029
 3432WAT    EPW14436   3.428   0.059   0.824  0.8181 -0.0190 -0.1192
 3433WAT      O14437   1.524   0.113   5.283  0.1632 -0.6587 -0.3720
 3433WAT     H114438   1.522   0.026   5.291 -0.8304 -0.8528 -2.2198
 3433WAT     H214439   1.604   0.128   5.253  0.3822 -0.9045  0.0652
 3433WAT    EPW14440   1.535   0.102   5.280 -0.5677  0.1267  0.3352
 3434WAT      O14441   3.119   6.049   0.032 -0.3079  0.6257  0.2131
 3434WAT     H114442   3.163   6.011   0.097 -0.5860  0.0241  0.0643
 3434WAT     H214443   3.164   6.122   0.016 -0.2915  0.8278  1.1360
 3434WAT    EPW14444   3.133   6.054   0.039  0.1850 -0.1740 -0.4790
 3435WAT      O14445   7.046   2.030   0.817 -0.3029 -0.2846  0.1352
 3435WAT     H114446   7.082   1.950   0.820 -1.9465 -1.1230 -1.0556
 3435WAT     H214447   6.963   2.014   0.795 -0.5149  1.8048 -0.7583
 3435WAT    EPW14448   7.039   2.016   0.814 -0.4185 -0.0864 -0.7719
 3436WAT      O14449   7.056   0.603   4.828  0.1453 -0.7254 -0.3907
 3436WAT     H114450   6.988   0.559   4.796  0.1165 -0.3885 -0.8093
 3436WAT     H214451   7.020   0.669   4.871  0.1958 -0.8994 -0.0798
 3436WAT    EPW14452   7.041   0.606   4.829 -0.0489 -0.4906 -0.5567
 3437WAT      O14453   3.699   1.768   5.094  0.4975  0.1553  0.0518
 3437WAT     H114454   3.749   1.829   5.057  0.6693  0.1352  0.2474
 3437WAT     H214455   3.756   1.706   5.117  0.2867 -0.2377 -0.4491
 3437WAT    EPW14456   3.715   1.768   5.092  0.2628  0.1563 -0.0253
 3438WAT      O14457   1.196   0.109   6.498 -0.4481 -0.1265  0.1818
 3438WAT     H114458   1.253   0.045   6.480 -0.2035  0.2978 -0.5775
 3438WAT     H214459   1.138   0.070   6.550  0.4617 -0.6092  0.8792
 3438WAT    EPW14460   1.196   0.094   6.503  0.0484  0.3917  0.8165
 3439WAT      O14461   3.616   6.157   1.111 -0.0142  0.2536 -0.0743
 3439WAT     H114462   3.579   6.227   1.148 -1.2430  0.0272 -0.8159
 3439WAT     H214463   3.616   6.098   1.175  2.3554  1.3059  1.0121
 3439WAT    EPW14464   3.610   6.159   1.126 -0.4837  0.0390 -0.1209
 3440WAT      O14465   3.852   6.844   6.402  0.4902  0.2495  0.6183
 3440WAT     H114466   3.922   6.793   6.411 -0.1134 -0.7444 -0.1383
 3440WAT     H214467   3.790   6.790   6.374 -0.2680  1.3417  0.1008
 3440WAT    EPW14468   3.853   6.829   6.400 -0.2472  0.3100 -0.6603
 3441WAT      O14469   3.923   6.880   1.818 -0.2307  0.0438 -0.6191
 3441WAT     H114470   3.941   6.935   1.753  2.1424 -0.2758 -0.3295
 3441WAT     H214471   3.892   6.809   1.777  0.1310  0.2772 -1.3112
 3441WAT    EPW14472   3.921   6.877   1.803  0.2378 -0.1313  0.4842
 3442WAT      O14473   7.632   4.744   7.287  0.0987  0.1089 -0.1681
 3442WAT     H114474   7.564   4.772   7.239 -0.2370 -0.1348  0.1592
 3442WAT     H214475   7.667   4.817   7.318  1.1737  0.3934 -1.9008
 3442WAT    EPW14476   7.627   4.759   7.284 -0.4768 -0.0007 -0.0744
 3443WAT      O14477   3.452   1.634   1.712 -0.2521  0.2005  0.1157
 3443WAT     H114478   3.524   1.662   1.752 -0.3136  0.6444 -0.0885
 3443WAT     H214479   3.483   1.587   1.645 -0.1318 -1.3689  1.2125
 3443WAT    EPW14480   3.467   1.631   1.708 -0.2624  0.1203  0.4007
 3444WAT      O14481   3.191   5.032   0.014 -0.3554  0.2561  0.1592
 3444WAT     H114482   3.251   5.087   0.045  0.0933 -0.2124  0.1391
 3444WAT     H214483   3.164   5.070  -0.059  0.5691  0.0431 -0.3058
 3444WAT    EPW14484   3.196   5.046   0.008 -0.8359  0.5956  0.1855
 3445WAT      O14485   6.046   6.526   6.805 -0.5074 -0.2616  0.2666
 3445WAT     H114486   6.089   6.576   6.862 -0.4974 -1.1683  1.0810
 3445WAT     H214487   5.993   6.582   6.764  1.1823  0.8355 -0.5538
 3445WAT    EPW14488   6.044   6.541   6.807  0.5322 -0.2976 -0.5790
 3446WAT      O14489   1.975   5.890   1.392  0.1107  0.7182  0.2751
 3446WAT     H114490   2.006   5.822   1.437 -1.4747 -1.0549 -1.1670
 3446WAT     H214491   2.043   5.916   1.344  0.6069 -0.1522  0.4912
 3446WAT    EPW14492   1.990   5.884   1.392  0.2801  0.0219  0.4027
 3447WAT      O14493   6.242   5.303   1.900 -0.1173  0.6549 -0.4807
 3447WAT     H114494   6.224   5.388   1.907 -1.1453  0.3295  1.4793
 3447WAT     H214495   6.243   5.275   1.983 -1.5213 -1.5669 -1.1150
 3447WAT    EPW14496   6.239   5.311   1.913 -0.0772 -0.1026  0.3984
 3448WAT      O14497   0.052   5.314   5.092  0.1001  0.3722  0.0300
 3448WAT     H114498   0.117   5.290   5.040 -1.2842  1.7719 -2.4992
 3448WAT     H214499   0.048   5.400   5.082 -0.5758  0.6475  2.1188
 3448WAT    EPW14500   0.061   5.323   5.083  0.2422  0.0044  0.5093
 3449WAT      O14501   6.161   0.989   6.416 -0.2482 -0.4746  0.6455
 3449WAT     H114502   6.193   0.976   6.496  0.1612  0.6263  0.6841
 3449WAT     H214503   6.086   0.945   6.416  0.9122 -2.5766  0.7800
 3449WAT    EPW14504   6.155   0.981   6.428 -0.2051  1.0357 -0.2027
 3450WAT      O14505   0.590   0.865   3.482  0.6110  0.2306 -0.1342
 3450WAT     H114506   0.662   0.848   3.529  0.5048 -1.7650 -0.6257
 3450WAT     H214507   0.534   0.803   3.506 -0.8019  1.4414 -0.1530
 3450WAT    EPW14508   0.593   0.853   3.492  0.2542  0.1965  0.2551
 3451WAT      O14509   7.232   5.878   3.239  0.5829 -0.0042 -0.5596
 3451WAT     H114510   7.146   5.865   3.240  0.0276  2.9250  0.4309
 3451WAT     H214511   7.248   5.901   3.156 -0.3531  2.8181 -0.0825
 3451WAT    EPW14512   7.221   5.879   3.227  0.6090 -0.0532  0.1768
 3452WAT      O14513   6.838   1.341   6.714 -0.5356  0.0087  0.6151
 3452WAT     H114514   6.900   1.387   6.673 -0.0032 -2.0489 -1.1110
 3452WAT     H214515   6.880   1.269   6.739 -2.2905 -1.8902 -1.4380
 3452WAT    EPW14516   6.853   1.337   6.712 -0.2297  0.3389 -0.2995
 3453WAT      O14517   2.638   7.469   0.765  0.8735  0.1253 -0.3794
 3453WAT     H114518   2.588   7.488   0.696 -0.2985 -0.2448  0.3385
 3453WAT     H214519   2.581   7.468   0.832  1.6760 -1.2402  0.3212
 3453WAT    EPW14520   2.622   7.472   0.765 -0.0722 -0.1302  0.2553
 3454WAT      O14521   7.525   2.510   6.337 -0.3066  0.1985  0.5849
 3454WAT     H114522   7.603   2.506   6.298 -0.4462  0.1543  0.3029
 3454WAT     H214523   7.475   2.549   6.277 -0.7414 -0.6688  0.3523
 3454WAT    EPW14524   7.529   2.515   6.322  0.1321 -0.0616 -0.2303
 3455WAT      O14525   1.156   4.359   2.542  0.4565 -0.3407  0.1954
 3455WAT     H114526   1.164   4.421   2.481 -0.5383 -0.4933 -0.1061
 3455WAT     H214527   1.078   4.375   2.577 -0.3771 -2.1696 -0.7280
 3455WAT    EPW14528   1.146   4.370   2.538  0.4265 -0.0126  0.4522
 3456WAT      O14529   3.865   2.850   6.112 -0.4476  0.0862  0.1497
 3456WAT     H114530   3.879   2.895   6.038 -1.1616 -1.6955 -1.1343
 3456WAT     H214531   3.915   2.891   6.170 -0.3223  1.9312 -1.1477
 3456WAT    EPW14532   3.874   2.863   6.110  0.1306  0.1213  0.6793
 3457WAT      O14533   6.334   4.328   1.198  0.1964 -0.4403  0.3901
 3457WAT     H114534   6.283   4.382   1.153 -1.0531 -1.5546  0.4062
 3457WAT     H214535   6.405   4.376   1.215  0.5860  0.1766 -2.4235
 3457WAT    EPW14536   6.337   4.343   1.194  0.2921  0.0904 -0.6048
 3458WAT      O14537   0.306   7.451   2.007 -0.6007  0.2396  0.6180
 3458WAT     H114538   0.289   7.402   1.937  0.2037 -1.2642  1.4298
 3458WAT     H214539   0.389   7.474   1.997  0.1829 -1.6831  1.9785
 3458WAT    EPW14540   0.316   7.447   1.995 -0.2416 -0.0265 -0.0550
 3459WAT      O14541   6.534   2.157   6.172 -0.4071 -0.2909  0.4596
 3459WAT     H114542   6.561   2.236   6.148  1.4270 -0.9066  0.3729
 3459WAT     H214543   6.452   2.171   6.200 -0.4940  1.4366 -0.5237
 3459WAT    EPW14544   6.526   2.171   6.173  0.2707  0.5671 -0.5268
 3460WAT      O14545   2.856   2.696   1.649 -0.1784  0.5813 -0.7449
 3460WAT     H114546   2.781   2.691   1.604 -0.3872  1.9274 -0.5883
 3460WAT     H214547   2.849   2.772   1.692  2.0282  1.6779 -2.1351
 3460WAT    EPW14548   2.844   2.707   1.649  0.5308  0.5159  0.0165
 3461WAT      O14549   6.035   7.617   0.883 -0.0933  0.2588  0.1490
 3461WAT     H114550   6.047   7.579   0.961  0.8272  0.6631  0.2045
 3461WAT     H214551   6.033   7.549   0.828 -1.2658 -0.0745  0.5611
 3461WAT    EPW14552   6.036   7.601   0.886  0.5927  0.1593  0.1476
 3462WAT      O14553   1.101   3.670   4.161 -1.0834 -0.2085 -0.2277
 3462WAT     H114554   1.037   3.711   4.203 -1.0776 -0.2326 -0.1960
 3462WAT     H214555   1.136   3.732   4.110  0.5500  0.4853  1.6177
 3462WAT    EPW14556   1.097   3.685   4.159  0.2772  0.3710  0.3031
 3463WAT      O14557   1.300   6.000   7.259  0.5424 -0.4707  0.4079
 3463WAT     H114558   1.214   5.999   7.244  0.6653  0.4038 -0.4289
 3463WAT     H214559   1.307   5.958   7.335 -0.4418 -2.1050 -0.3500
 3463WAT    EPW14560   1.288   5.994   7.268  0.3758 -0.3350 -0.2748
 3464WAT      O14561   3.649   3.765   6.419 -0.2169  0.1822 -0.1423
 3464WAT     H114562   3.627   3.826   6.477 -0.8561  0.6062 -0.8195
 3464WAT     H214563   3.573   3.727   6.399 -0.0369  0.1711 -0.8318
 3464WAT    EPW14564   3.635   3.769   6.425  0.2150 -0.0915 -0.1198
 3465WAT      O14565   0.712   6.059   3.043  0.6771 -0.2806 -0.2679
 3465WAT     H114566   0.720   6.115   2.977  2.3986  0.6488  0.6528
 3465WAT     H214567   0.626   6.052   3.054  0.3987  2.0386 -0.5542
 3465WAT    EPW14568   0.700   6.066   3.035 -0.3999 -0.4964  0.6968
 3466WAT      O14569   6.484   1.916   2.583 -0.3674 -0.0366  0.1448
 3466WAT     H114570   6.431   1.977   2.616 -1.6191 -0.1356 -1.5741
 3466WAT     H214571   6.535   1.960   2.528 -1.8464 -0.5973 -1.7564
 3466WAT    EPW14572   6.484   1.931   2.580  0.1764  0.4534 -0.1750
 3467WAT      O14573   4.366   4.834   2.892 -0.2928  0.7804 -0.1714
 3467WAT     H114574   4.308   4.811   2.953 -1.5648 -0.3345 -1.7303
 3467WAT     H214575   4.424   4.883   2.936 -0.9256 -0.3203  1.9936
 3467WAT    EPW14576   4.366   4.838   2.908 -0.8164  0.1240  0.6352
 3468WAT      O14577   1.370   3.319   5.113  0.2952  0.5077  0.1955
 3468WAT     H114578   1.452   3.324   5.082 -0.2733 -0.3587 -1.5869
 3468WAT     H214579   1.322   3.307   5.041 -1.3785  0.6650  1.2439
 3468WAT    EPW14580   1.375   3.318   5.097 -0.3286 -0.7486  0.6809
 3469WAT      O14581   3.335   4.002   1.291 -0.6302  0.8082 -0.8376
 3469WAT     H114582   3.264   3.975   1.334 -1.4429  0.6176 -2.2390
 3469WAT     H214583   3.302   4.046   1.224  0.6270  2.5743 -0.3571
 3469WAT    EPW14584   3.320   4.004   1.288 -0.1892 -0.1454  0.0148
 3470WAT      O14585   7.199   1.153   0.976  0.0175 -0.2918  0.2183
 3470WAT     H114586   7.257   1.194   0.926  0.1156  1.4914  1.6723
 3470WAT     H214587   7.123   1.170   0.936  0.3553 -2.0014 -1.2745
 3470WAT    EPW14588   7.196   1.162   0.962  0.1931 -0.2738  0.1219
 3471WAT      O14589   7.428   4.907   6.288  0.3360  0.0046  0.0483
 3471WAT     H114590   7.444   4.932   6.206  0.5824 -0.5002 -0.0561
 3471WAT     H214591   7.346   4.935   6.302  0.2919  0.0911 -0.3653
 3471WAT    EPW14592   7.418   4.915   6.278  0.2370 -0.0628 -0.0909
 3472WAT      O14593   6.932   6.039   7.154 -0.3132 -0.6301  0.3573
 3472WAT     H114594   6.915   6.114   7.195 -0.7641 -0.4225 -0.1965
 3472WAT     H214595   6.893   6.049   7.076 -0.3234 -1.4132  0.2571
 3472WAT    EPW14596   6.923   6.052   7.148  0.1009  0.7345  0.3376
 3473WAT      O14597   6.708   4.180   7.428 -0.1886 -0.1327 -0.0379
 3473WAT     H114598   6.674   4.245   7.475  1.2802  0.3102  0.4624
 3473WAT     H214599   6.779   4.156   7.473  1.2866  0.3079 -1.9803
 3473WAT    EPW14600   6.714   4.186   7.441 -0.0878 -0.2129  0.0965
 3474WAT      O14601   4.780   6.560   6.163  0.4225  0.7219 -0.0889
 3474WAT     H114602   4.786   6.473   6.163  3.0429  0.8336  0.3852
 3474WAT     H214603   4.845   6.585   6.110 -1.8370  2.3925 -2.3220
 3474WAT    EPW14604   4.790   6.551   6.155 -0.0177  0.2839 -0.1850
 3475WAT      O14605   7.342   0.043   0.489 -0.9480 -0.5288 -0.2221
 3475WAT     H114606   7.317   0.078   0.413  0.4219 -1.0923 -0.9635
 3475WAT     H214607   7.414  -0.002   0.469 -0.2199 -0.2427  1.5065
 3475WAT    EPW14608   7.349   0.042   0.475 -0.4861 -0.5807  0.2283
 3476WAT      O14609   2.161   4.974   3.182  0.1699  0.1662 -0.3564
 3476WAT     H114610   2.225   5.017   3.142  0.3882  0.2085  0.0295
 3476WAT     H214611   2.177   4.890   3.164  0.8579  0.1052  0.4713
 3476WAT    EPW14612   2.173   4.968   3.174  0.3068  0.1497  0.4147
 3477WAT      O14613   3.121   5.259   6.862 -0.0654 -0.3547  0.3137
 3477WAT     H114614   3.044   5.230   6.833  0.0759  1.2118 -1.9118
 3477WAT     H214615   3.106   5.344   6.877  0.8740 -0.3496  1.3424
 3477WAT    EPW14616   3.107   5.267   6.860  0.4780 -0.3303 -0.3601
 3478WAT      O14617   6.685   2.395   4.894  0.6206 -0.5886  0.1301
 3478WAT     H114618   6.661   2.437   4.967  3.1227 -0.7560  1.1446
 3478WAT     H214619   6.621   2.414   4.838 -1.1264  0.0048  2.1777
 3478WAT    EPW14620   6.672   2.404   4.897  0.0991  0.1966  0.7895
 3479WAT      O14621   3.296   0.647   5.981 -0.3247 -0.1777 -0.3260
 3479WAT     H114622   3.352   0.671   5.918  0.2052  2.3696  0.9581
 3479WAT     H214623   3.225   0.623   5.937  0.4662  0.2808 -1.9331
 3479WAT    EPW14624   3.294   0.647   5.965  0.6659  0.8982  0.1532
 3480WAT      O14625   4.184   2.445   3.154 -0.1201  0.1850  0.0422
 3480WAT     H114626   4.256   2.395   3.152  0.7298  1.3604 -0.9646
 3480WAT     H214627   4.205   2.509   3.209 -0.7167  0.1088  0.3621
 3480WAT    EPW14628   4.198   2.447   3.162  0.2254  0.1315  0.4654
 3481WAT      O14629   0.578   1.874   0.289 -0.3592 -0.4680  0.2126
 3481WAT     H114630   0.657   1.852   0.319 -0.1448  1.9805  1.7367
 3481WAT     H214631   0.524   1.839   0.348 -0.6794 -3.5186 -1.6621
 3481WAT    EPW14632   0.582   1.865   0.302 -0.1778 -0.4735  0.2306
 3482WAT      O14633   5.705   6.100   6.297  0.1621  0.3159 -0.1241
 3482WAT     H114634   5.699   6.057   6.373 -0.5200 -2.0361 -1.4057
 3482WAT     H214635   5.790   6.112   6.286  0.2914  0.3173  0.7916
 3482WAT    EPW14636   5.716   6.096   6.307  0.0390 -0.1715 -0.4057
 3483WAT      O14637   6.296   6.382   3.771 -0.3775  0.0995  0.0709
 3483WAT     H114638   6.327   6.313   3.813 -0.0539 -0.6807 -1.3641
 3483WAT     H214639   6.226   6.351   3.728  0.1697  0.4773 -1.1311
 3483WAT    EPW14640   6.290   6.367   3.771  0.2350 -0.2120 -0.2583
 3484WAT      O14641   4.957   5.275   1.601  1.1929 -0.7102  0.1537
 3484WAT     H114642   4.922   5.346   1.565  1.0996 -1.5841 -1.5486
 3484WAT     H214643   4.889   5.222   1.614  1.4416 -1.0594  0.0481
 3484WAT    EPW14644   4.942   5.278   1.598  0.1765  0.0108 -0.4173
 3485WAT      O14645   0.380   4.347   6.955 -0.6829 -0.2747 -0.1821
 3485WAT     H114646   0.336   4.314   7.023 -2.0601 -0.3294 -1.0586
 3485WAT     H214647   0.339   4.423   6.940 -1.4686 -0.9986 -1.9329
 3485WAT    EPW14648   0.368   4.353   6.963 -0.5348 -1.0284  0.2979
 3486WAT      O14649   0.019   3.895   2.769 -0.2208  0.4186  0.0297
 3486WAT     H114650  -0.068   3.902   2.764 -0.4710 -2.3861 -0.7334
 3486WAT     H214651   0.046   3.931   2.695 -0.6281  1.7697  0.4923
 3486WAT    EPW14652   0.010   3.902   2.758  0.1307 -0.3243  0.0736
 3487WAT      O14653   2.207   7.351   2.534  0.0505 -0.1805  0.3426
 3487WAT     H114654   2.260   7.296   2.576 -0.6376 -0.9122  0.2742
 3487WAT     H214655   2.127   7.324   2.555 -0.3167 -0.4079 -1.2185
 3487WAT    EPW14656   2.203   7.339   2.544 -0.0040  0.2454  0.1477
 3488WAT      O14657   3.318   1.627   5.736 -0.0446 -0.1390 -0.3175
 3488WAT     H114658   3.301   1.659   5.657 -1.5786  1.4149  0.5470
 3488WAT     H214659   3.297   1.694   5.789  0.6001 -1.2440  1.4101
 3488WAT    EPW14660   3.312   1.642   5.732 -0.3597  0.0331 -0.0434
 3489WAT      O14661   5.338   4.644   6.222 -0.9473 -0.0282 -0.1158
 3489WAT     H114662   5.313   4.666   6.142  0.7865 -1.3763 -1.0920
 3489WAT     H214663   5.294   4.571   6.238 -2.4735  1.0404  0.8597
 3489WAT    EPW14664   5.328   4.636   6.213  0.0977 -0.0254  0.5063
 3490WAT      O14665   6.891   2.416   1.973 -0.5026 -0.1390  0.4032
 3490WAT     H114666   6.806   2.435   1.962 -0.3777  0.2987  0.1639
 3490WAT     H214667   6.913   2.463   2.044  0.3404  2.4242 -1.4237
 3490WAT    EPW14668   6.882   2.426   1.982  0.0478 -0.3126 -0.0895
 3491WAT      O14669   2.815   2.640   2.829 -0.2119 -0.0286  0.3309
 3491WAT     H114670   2.870   2.636   2.896  0.4535 -1.6245 -0.2776
 3491WAT     H214671   2.853   2.698   2.775 -0.0516  0.2109  0.6966
 3491WAT    EPW14672   2.829   2.648   2.831  0.2478  0.1856  0.0820
 3492WAT      O14673   7.333   5.455   7.145 -0.1479 -0.4557 -0.1631
 3492WAT     H114674   7.323   5.507   7.214 -1.9970 -1.3438  0.2971
 3492WAT     H214675   7.384   5.502   7.092  0.7985  0.5104  1.5081
 3492WAT    EPW14676   7.339   5.470   7.147 -0.0774  0.1641  0.4832
 3493WAT      O14677   6.228   5.728   2.902  0.1163  0.2542  0.4840
 3493WAT     H114678   6.153   5.721   2.947  0.3424  1.4729  1.0971
 3493WAT     H214679   6.208   5.696   2.824 -1.0625  0.5779  0.6338
 3493WAT    EPW14680   6.214   5.723   2.897 -0.3450  0.1904 -0.4346
 3494WAT      O14681   3.878   4.776   2.522  0.0121  0.1652  0.0332
 3494WAT     H114682   3.829   4.704   2.524 -0.0540  0.2183  1.5534
 3494WAT     H214683   3.823   4.838   2.495 -0.0305 -0.2467 -0.8903
 3494WAT    EPW14684   3.863   4.775   2.518  0.1488  0.5308 -0.3656
 3495WAT      O14685   1.048   0.578   0.133 -0.5634  0.3072 -0.0752
 3495WAT     H114686   1.052   0.655   0.091  0.3101  0.8238  0.8969
 3495WAT     H214687   1.004   0.597   0.206 -0.7480 -0.2233 -0.0473
 3495WAT    EPW14688   1.042   0.593   0.137 -0.4009  0.4887  0.5001
 3496WAT      O14689   0.095   3.503   2.370 -0.5277  0.0042 -0.3731
 3496WAT     H114690   0.038   3.474   2.311  0.7095 -1.3575 -0.9604
 3496WAT     H214691   0.153   3.438   2.377  0.6408  1.0897  0.6277
 3496WAT    EPW14692   0.095   3.489   2.363 -0.2237 -0.6706  0.0649
 3497WAT      O14693   7.612   2.013   5.720  0.4037  0.4773 -0.5899
 3497WAT     H114694   7.579   2.018   5.639 -1.1303 -1.2941 -0.1313
 3497WAT     H214695   7.542   1.999   5.770  1.6146 -1.6064  0.6670
 3497WAT    EPW14696   7.597   2.012   5.715 -1.1248  0.2726 -0.0584
 3498WAT      O14697   1.396   6.154   6.494 -0.0346  0.0063  0.1139
 3498WAT     H114698   1.464   6.103   6.471  0.0459 -0.2965  0.9652
 3498WAT     H214699   1.331   6.125   6.445  0.9732  1.9389 -2.5831
 3498WAT    EPW14700   1.397   6.142   6.484 -0.3106 -0.6757 -0.1874
 3499WAT      O14701   1.070   4.954   0.019 -0.1617 -0.5371  0.5787
 3499WAT     H114702   1.072   4.871  -0.007 -1.5440 -0.3826 -0.1267
 3499WAT     H214703   0.987   4.978   0.005  0.2933  1.0677  0.3850
 3499WAT    EPW14704   1.058   4.945   0.013 -0.0128  0.0712 -0.1034
 3500WAT      O14705   3.050   6.734   0.605  0.4803 -0.0710  0.5640
 3500WAT     H114706   3.005   6.769   0.538  0.6560  0.2017  0.5873
 3500WAT     H214707   3.118   6.696   0.566  0.2937 -0.3897  0.5395
 3500WAT    EPW14708   3.053   6.733   0.589 -0.0905  0.2581 -0.1121
 3501WAT      O14709   3.239   3.114   0.124  0.8375  0.6400  0.2070
 3501WAT     H114710   3.313   3.151   0.096 -0.3209  2.5881 -0.5085
 3501WAT     H214711   3.192   3.106   0.051  1.1383 -2.8822  0.1980
 3501WAT    EPW14712   3.243   3.118   0.109 -0.0027 -0.3024  0.1092
 3502WAT      O14713   0.699   3.312   2.395  0.0752  0.2268 -0.3468
 3502WAT     H114714   0.677   3.394   2.414 -0.0924  0.2220 -0.5261
 3502WAT     H214715   0.624   3.274   2.374 -0.4759 -0.8913  2.9896
 3502WAT    EPW14716   0.685   3.318   2.395  0.4070  0.3538 -0.9389
 3503WAT      O14717   4.813   2.453   2.543 -0.5064  0.2645  0.1287
 3503WAT     H114718   4.873   2.489   2.595 -1.8331  0.6497  1.4989
 3503WAT     H214719   4.785   2.384   2.588  0.1820 -1.0079 -1.3197
 3503WAT    EPW14720   4.818   2.448   2.557 -0.1513 -0.6348 -0.3205
 3504WAT      O14721   0.599   4.428   7.086  0.6972  0.0657  0.8239
 3504WAT     H114722   0.528   4.398   7.045  1.3639  0.8827 -1.0256
 3504WAT     H214723   0.655   4.361   7.080  1.0061  0.4043 -0.1957
 3504WAT    EPW14724   0.597   4.413   7.079 -0.1103  0.6569 -0.2588
 3505WAT      O14725   7.208   1.787   5.478  0.2987  0.3395 -0.0869
 3505WAT     H114726   7.277   1.738   5.502  0.3007  0.1985 -0.3682
 3505WAT     H214727   7.202   1.847   5.541 -0.8155 -1.0847  1.2348
 3505WAT    EPW14728   7.218   1.789   5.491 -0.6934 -0.2022 -0.6039
 3506WAT      O14729   6.909   1.890   4.151 -0.0834 -0.3169 -0.1389
 3506WAT     H114730   6.881   1.820   4.106 -1.8787 -0.7224  1.4872
 3506WAT     H214731   6.902   1.865   4.234  1.7607  0.9318  0.4562
 3506WAT    EPW14732   6.904   1.876   4.156 -0.0442 -0.1388 -0.1835
 3507WAT      O14733   5.726   7.080   0.632  0.3319 -0.1014 -0.0194
 3507WAT     H114734   5.696   7.012   0.586 -1.3680  1.1886 -0.9145
 3507WAT     H214735   5.683   7.073   0.708  1.2689 -0.8189  0.4684
 3507WAT    EPW14736   5.715   7.069   0.636  0.0207  0.0247  0.1553
 3508WAT      O14737   2.067   2.727   4.393  0.2104  0.1257 -0.2639
 3508WAT     H114738   2.123   2.790   4.371  1.9431 -1.5466 -0.9594
 3508WAT     H214739   2.074   2.723   4.480 -0.0030  0.9312 -0.1998
 3508WAT    EPW14740   2.076   2.736   4.402  0.2967  0.6798  0.6449
 3509WAT      O14741   0.239   4.233   2.450 -0.2822  0.1665  0.2239
 3509WAT     H114742   0.213   4.244   2.533  1.4147  3.1382  0.4998
 3509WAT     H214743   0.320   4.263   2.450  0.0302 -0.4554 -2.4267
 3509WAT    EPW14744   0.247   4.239   2.463  0.0892 -0.3742 -0.5451
 3510WAT      O14745   5.081   1.565   7.093 -0.5178 -0.4625 -0.7512
 3510WAT     H114746   5.068   1.602   7.172  0.4620 -0.0694 -0.7656
 3510WAT     H214747   5.132   1.497   7.111  0.5221  0.1913 -1.1566
 3510WAT    EPW14748   5.087   1.561   7.107  0.3365 -0.1350 -0.9114
 3511WAT      O14749   3.385   2.905   1.885  0.0847 -0.5927 -0.2763
 3511WAT     H114750   3.438   2.974   1.876  0.3430 -0.6738  0.5650
 3511WAT     H214751   3.351   2.896   1.806  0.4533  0.1760 -0.5381
 3511WAT    EPW14752   3.388   2.914   1.872 -0.6437  0.0672 -0.0008
 3512WAT      O14753   2.067   6.739   3.726  0.7819 -0.8226  0.2715
 3512WAT     H114754   2.035   6.818   3.745 -2.9082 -2.4278  1.6304
 3512WAT     H214755   2.120   6.722   3.793  2.0106  0.6076 -0.2862
 3512WAT    EPW14756   2.070   6.748   3.739 -0.3779  0.2143 -0.2888
 3513WAT      O14757   2.127   2.441   5.309 -0.1696 -0.0572 -0.9244
 3513WAT     H114758   2.103   2.382   5.369 -0.2739  2.8905  2.2400
 3513WAT     H214759   2.051   2.472   5.280 -0.1100 -0.3759 -1.4341
 3513WAT    EPW14760   2.112   2.437   5.314  0.4076  0.0104 -0.0134
 3514WAT      O14761   5.933   1.456   5.508  0.6229  0.2682  0.1465
 3514WAT     H114762   5.988   1.523   5.511  0.0120  0.7903 -0.0041
 3514WAT     H214763   5.875   1.480   5.447  0.8180 -0.7296 -0.4596
 3514WAT    EPW14764   5.932   1.469   5.499 -0.5088 -0.7094  0.0815
 3515WAT      O14765   6.321   5.768   7.145 -0.6647 -0.2296  0.1364
 3515WAT     H114766   6.272   5.714   7.098  0.2875  0.2591 -1.5181
 3515WAT     H214767   6.366   5.813   7.084 -0.6357  1.6662  1.4680
 3515WAT    EPW14768   6.321   5.767   7.129  0.3819  0.0469 -0.1656
 3516WAT      O14769   5.716   6.552   4.594  0.2357 -0.1182 -0.5706
 3516WAT     H114770   5.729   6.618   4.539  0.8705  1.1399  1.0215
 3516WAT     H214771   5.694   6.591   4.669 -0.4759 -1.7681  0.1422
 3516WAT    EPW14772   5.714   6.568   4.597 -0.1719 -0.1558  0.0122
 3517WAT      O14773   5.455   2.206   4.016  0.5165 -0.1127  0.0704
 3517WAT     H114774   5.533   2.240   4.033 -0.0664  0.2216  2.4178
 3517WAT     H214775   5.400   2.272   4.032 -0.3663 -0.9644  0.6270
 3517WAT    EPW14776   5.459   2.221   4.021  0.0017 -0.1974  0.5610
 3518WAT      O14777   6.972   0.950   6.481 -0.3805 -0.0912  0.1100
 3518WAT     H114778   6.898   0.928   6.522  0.6609  0.9263  2.7515
 3518WAT     H214779   6.947   1.010   6.424 -1.5928  0.5088  1.2101
 3518WAT    EPW14780   6.958   0.955   6.479 -0.1295 -0.2513 -0.3904
 3519WAT      O14781   7.520   1.030   2.688 -0.0023 -0.0320  0.1106
 3519WAT     H114782   7.555   1.069   2.618 -0.0786 -1.0453 -0.5182
 3519WAT     H214783   7.436   1.020   2.665 -0.3482  0.8896  0.9288
 3519WAT    EPW14784   7.513   1.034   2.674  0.0356 -0.3176  0.1626
 3520WAT      O14785   3.520   5.891   3.885  0.0773  0.1222 -0.0430
 3520WAT     H114786   3.487   5.960   3.843  0.3211  0.2033 -0.1103
 3520WAT     H214787   3.454   5.836   3.891 -0.1282  0.3737  0.0312
 3520WAT    EPW14788   3.506   5.893   3.880  0.4994 -0.2781  0.0736
 3521WAT      O14789   3.664   6.389   3.778  0.6173  0.4879 -0.2445
 3521WAT     H114790   3.600   6.362   3.724  0.4362  2.4700 -1.1167
 3521WAT     H214791   3.734   6.345   3.751 -0.4043 -2.2914  1.1874
 3521WAT    EPW14792   3.665   6.379   3.766  0.2549 -0.4977  0.0436
 3522WAT      O14793   4.075   6.059   7.293 -0.5945  0.1133  0.5522
 3522WAT     H114794   4.070   5.989   7.346  0.0112  0.0740  0.5726
 3522WAT     H214795   3.994   6.069   7.264 -0.5242 -1.1882 -0.2059
 3522WAT    EPW14796   4.062   6.050   7.297  0.1616 -0.1666 -0.2593
 3523WAT      O14797   6.650  -0.027   4.259 -0.3441 -0.0763 -0.1410
 3523WAT     H114798   6.601   0.038   4.229 -0.4338 -0.1581 -0.1723
 3523WAT     H214799   6.714   0.014   4.302 -0.5727  0.0247  0.1050
 3523WAT    EPW14800   6.652  -0.012   4.261  0.3538 -0.3991 -0.2216
 3524WAT      O14801   1.234   1.734   6.483 -0.4935  0.7619 -0.2563
 3524WAT     H114802   1.272   1.763   6.410 -0.2099 -0.8978 -0.8152
 3524WAT     H214803   1.254   1.795   6.542  0.3457  1.5077 -1.2750
 3524WAT    EPW14804   1.243   1.747   6.481 -0.4494  0.2817  0.5674
 3525WAT      O14805   5.742   0.872   3.392 -0.4288 -0.2275  0.1558
 3525WAT     H114806   5.710   0.816   3.333 -1.6336 -0.6333  1.1719
 3525WAT     H214807   5.677   0.929   3.403  1.3470  2.5766 -2.1940
 3525WAT    EPW14808   5.728   0.872   3.385 -0.9347 -0.0522 -0.0867
 3526WAT      O14809   7.157   5.604   0.078  0.4220  0.1396 -0.7214
 3526WAT     H114810   7.210   5.574   0.141  0.1261  0.9741 -0.0456
 3526WAT     H214811   7.082   5.619   0.121  0.3183  1.0365 -1.1984
 3526WAT    EPW14812   7.154   5.602   0.094  0.8985 -0.2003 -0.0306
 3527WAT      O14813   3.692   3.297   6.543 -0.2454  0.2640 -0.5078
 3527WAT     H114814   3.678   3.382   6.528  1.4553  0.5477 -0.6987
 3527WAT     H214815   3.694   3.291   6.630 -0.1653  0.4707 -0.4949
 3527WAT    EPW14816   3.691   3.309   6.553  0.1184 -0.3939  0.5754
 3528WAT      O14817   2.873   2.426   5.412  0.4196  0.4545 -0.2473
 3528WAT     H114818   2.788   2.410   5.418  0.7244 -1.0649  0.5454
 3528WAT     H214819   2.902   2.363   5.357  1.0040  1.0652 -0.6589
 3528WAT    EPW14820   2.865   2.414   5.404 -0.9219  0.4967 -0.2318
 3529WAT      O14821   3.824   7.482   3.417  0.0555 -0.1432  0.1575
 3529WAT     H114822   3.809   7.445   3.494  0.5317 -1.2467 -0.2493
 3529WAT     H214823   3.744   7.500   3.386 -0.1150  2.1720  1.7222
 3529WAT    EPW14824   3.810   7.479   3.424 -0.6785  0.7410 -0.3380
 3530WAT      O14825   1.287   3.508   5.308 -0.6015  0.8433 -0.2055
 3530WAT     H114826   1.316   3.453   5.247 -0.4479  0.1120  0.5099
 3530WAT     H214827   1.354   3.515   5.364 -1.4864 -0.3059  1.0844
 3530WAT    EPW14828   1.301   3.500   5.308  0.1374 -0.2380  0.2804
 3531WAT      O14829   4.724   5.708   1.668  0.1762  0.5622 -0.2676
 3531WAT     H114830   4.771   5.652   1.620 -0.6706  0.8810 -1.5184
 3531WAT     H214831   4.764   5.785   1.654 -0.3817  0.7444 -0.9129
 3531WAT    EPW14832   4.737   5.711   1.659  0.6954  0.2046 -0.2017
 3532WAT      O14833   6.307   2.827   7.454 -0.3100  0.2974  0.6384
 3532WAT     H114834   6.278   2.758   7.499 -2.7071  0.9029  0.1341
 3532WAT     H214835   6.375   2.855   7.502  0.0534 -1.7292  1.4160
 3532WAT    EPW14836   6.313   2.821   7.468  0.0925  0.0482 -0.0211
 3533WAT      O14837   7.549   3.084   4.544 -0.0775 -0.3465 -0.4177
 3533WAT     H114838   7.467   3.080   4.516 -0.2688  0.6186 -0.0382
 3533WAT     H214839   7.560   3.009   4.587 -1.0423 -0.1136  0.2528
 3533WAT    EPW14840   7.539   3.072   4.546  0.3652 -0.3125 -0.4699
 3534WAT      O14841   2.093   5.835   0.502  0.4218 -0.3040  0.3696
 3534WAT     H114842   2.063   5.789   0.434  2.1855  0.3534 -0.9251
 3534WAT     H214843   2.155   5.784   0.535  0.5009 -0.0252  0.6552
 3534WAT    EPW14844   2.098   5.821   0.497  0.7023 -0.5586  0.4697
 3535WAT      O14845   6.718   4.658   6.040  0.1909  0.0185 -0.3342
 3535WAT     H114846   6.652   4.637   6.093  0.1173  0.7431 -0.1280
 3535WAT     H214847   6.785   4.611   6.071 -0.1145 -0.3888 -0.2783
 3535WAT    EPW14848   6.718   4.648   6.053 -0.0861  0.4438 -0.1118
 3536WAT      O14849   1.015   3.471   6.519  0.1511 -0.9898 -0.0591
 3536WAT     H114850   0.974   3.519   6.458 -1.2566  2.3381  3.1291
 3536WAT     H214851   0.976   3.393   6.512 -0.1913 -0.6760 -3.0622
 3536WAT    EPW14852   1.003   3.467   6.509  0.0328 -0.3378  0.0034
 3537WAT      O14853   1.121   1.056   6.234 -0.5795 -0.2703  0.1513
 3537WAT     H114854   1.153   0.977   6.254  1.6872  0.6065  0.3048
 3537WAT     H214855   1.133   1.101   6.307 -1.5154  0.3288 -0.0591
 3537WAT    EPW14856   1.128   1.051   6.248 -0.1849  0.5870  0.3604
 3538WAT      O14857   2.154   0.922   1.788  0.0575  0.4740  0.0340
 3538WAT     H114858   2.075   0.889   1.774 -0.3803  1.4177  0.2295
 3538WAT     H214859   2.161   0.984   1.727  1.5726 -1.0861 -1.4992
 3538WAT    EPW14860   2.144   0.926   1.777  0.3542 -0.1316  0.6010
 3539WAT      O14861   0.213   3.213   0.153  0.0982  0.2310 -0.5808
 3539WAT     H114862   0.152   3.156   0.127 -0.5090  1.1493 -1.2164
 3539WAT     H214863   0.168   3.272   0.199  0.7673  0.0615  0.3192
 3539WAT    EPW14864   0.197   3.213   0.156  0.2549  0.3066  0.3651
 3540WAT      O14865   1.557   3.295   7.521  0.3498 -0.8099  0.2834
 3540WAT     H114866   1.490   3.238   7.523  1.0439 -1.6354  0.3165
 3540WAT     H214867   1.533   3.352   7.459 -0.4134 -1.0612  0.3367
 3540WAT    EPW14868   1.543   3.295   7.512 -0.6289  0.2066  0.2966
 3541WAT      O14869   2.256   1.805   6.687 -0.0914  0.1562 -0.2338
 3541WAT     H114870   2.266   1.759   6.614  0.6536 -0.7586  0.4172
 3541WAT     H214871   2.200   1.868   6.664  0.7487  0.3791 -1.7952
 3541WAT    EPW14872   2.249   1.808   6.673  0.0598  0.1587 -0.3583
 3542WAT      O14873   5.541   1.918   7.317 -0.2224 -0.1475  0.5679
 3542WAT     H114874   5.551   1.928   7.231  0.2500 -1.7056  0.4153
 3542WAT     H214875   5.473   1.864   7.324 -0.6438  0.4419  1.2090
 3542WAT    EPW14876   5.532   1.911   7.306  0.3407 -0.1612 -0.2738
 3543WAT      O14877   6.198   6.780   7.562 -0.0266 -0.0894 -0.0664
 3543WAT     H114878   6.131   6.725   7.571 -1.7113  2.1630  4.9062
 3543WAT     H214879   6.267   6.731   7.582 -0.7139 -1.5270 -1.0717
 3543WAT    EPW14880   6.198   6.765   7.567  0.5889 -0.9056  0.2260
 3544WAT      O14881   0.242   4.912   3.340 -0.2943  0.2585  0.3621
 3544WAT     H114882   0.174   4.870   3.375  0.8588 -1.6938  0.4015
 3544WAT     H214883   0.291   4.933   3.410  0.5895 -1.0762  0.1941
 3544WAT    EPW14884   0.239   4.909   3.356  0.3023  0.3802  0.0295
 3545WAT      O14885   7.019   4.771   2.281  0.0857  0.2353  0.0173
 3545WAT     H114886   7.022   4.684   2.271  1.0483  0.0067  1.8622
 3545WAT     H214887   7.102   4.792   2.301 -0.6397  1.1863  2.2889
 3545WAT    EPW14888   7.032   4.761   2.282  0.2278  0.3417 -0.2322
 3546WAT      O14889   1.440   6.802   6.783  0.1918  0.4761  0.7707
 3546WAT     H114890   1.497   6.741   6.809  3.1080  2.1449 -1.1357
 3546WAT     H214891   1.433   6.855   6.852  2.2002  1.0155  0.6164
 3546WAT    EPW14892   1.448   6.801   6.797 -0.0246 -0.0034  0.5069
 3547WAT      O14893   7.644   3.015   0.082 -0.2297 -0.2690 -1.1585
 3547WAT     H114894   7.559   3.036   0.079  0.1567  1.3754 -1.4154
 3547WAT     H214895   7.665   3.004  -0.002  0.0563  0.4004 -1.1777
 3547WAT    EPW14896   7.635   3.016   0.069 -0.4542  0.1531 -0.0345
 3548WAT      O14897   5.503   4.090   7.015 -0.2820 -0.2098  0.5963
 3548WAT     H114898   5.517   4.058   7.095  0.4116 -1.5197 -0.0223
 3548WAT     H214899   5.580   4.127   6.995  0.5927 -2.4802 -0.5857
 3548WAT    EPW14900   5.517   4.091   7.024  0.2291  0.2091 -0.0767
 3549WAT      O14901   2.965   5.075   2.244  0.7419 -0.0957 -0.2229
 3549WAT     H114902   2.954   5.162   2.244 -0.1990 -0.2033 -0.1081
 3549WAT     H214903   2.938   5.051   2.323  0.1560 -0.5748 -0.5558
 3549WAT    EPW14904   2.959   5.085   2.256 -0.4170 -0.6540 -0.2692
 3550WAT      O14905   5.628   2.420   3.138  0.1758 -0.3152 -0.3644
 3550WAT     H114906   5.565   2.376   3.098  1.6726 -1.2252 -1.8481
 3550WAT     H214907   5.643   2.374   3.211 -0.8724 -0.0502  0.0352
 3550WAT    EPW14908   5.621   2.407   3.143 -0.1125 -0.2898 -0.1153
 3551WAT      O14909   5.930   4.158   1.342 -0.0742  0.3150 -0.6078
 3551WAT     H114910   5.875   4.128   1.281 -1.4064 -0.5122  0.9351
 3551WAT     H214911   5.926   4.244   1.333 -1.3069  0.2542 -0.8285
 3551WAT    EPW14912   5.922   4.166   1.332 -0.4865 -0.1584 -0.6893
 3552WAT      O14913   4.432   7.357   0.373  0.0480 -0.0262  0.0789
 3552WAT     H114914   4.486   7.289   0.366 -0.0963 -0.4062  2.0815
 3552WAT     H214915   4.485   7.426   0.378  0.3152 -0.2961  1.0212
 3552WAT    EPW14916   4.448   7.357   0.372  0.0981 -0.1615 -0.1215
 3553WAT      O14917   2.409   5.760   5.024 -0.1079 -0.4537 -0.5106
 3553WAT     H114918   2.481   5.717   5.048 -0.8986 -2.3332 -1.3260
 3553WAT     H214919   2.350   5.737   5.084 -0.0377  1.2357  0.2684
 3553WAT    EPW14920   2.411   5.751   5.036  0.3360  0.0700  0.0969
 3554WAT      O14921   1.188   0.389   3.646  0.2624  0.2583  0.2346
 3554WAT     H114922   1.165   0.389   3.730 -1.6663 -0.5375 -0.2372
 3554WAT     H214923   1.126   0.437   3.608 -0.3309 -1.4138 -1.0397
 3554WAT    EPW14924   1.176   0.396   3.652 -0.0898  0.0394 -0.1866
 3555WAT      O14925  -0.022   0.704   5.410 -0.4338  0.1778 -0.6950
 3555WAT     H114926   0.045   0.753   5.381 -0.9502  0.6834 -1.0490
 3555WAT     H214927  -0.003   0.624   5.380  0.2398  0.2179 -0.4078
 3555WAT    EPW14928  -0.009   0.700   5.401  0.2497  0.1317 -0.1433
 3556WAT      O14929   5.695   3.793   2.678  0.0656  0.2754 -0.5273
 3556WAT     H114930   5.691   3.789   2.765  1.6247  0.3120 -0.4206
 3556WAT     H214931   5.712   3.711   2.654 -2.5831 -0.2040 -1.0058
 3556WAT    EPW14932   5.697   3.781   2.687  0.7842  0.1467  0.2299
 3557WAT      O14933   0.988   5.991   4.368  0.0595  0.1444  0.4305
 3557WAT     H114934   1.066   5.973   4.402  0.5111  1.0779 -0.0634
 3557WAT     H214935   1.006   6.053   4.308 -0.9365 -0.2519 -0.2988
 3557WAT    EPW14936   1.002   5.998   4.364 -0.2173 -0.0557 -0.4121
 3558WAT      O14937   6.289   4.042   4.259  0.4643  0.2883 -0.1528
 3558WAT     H114938   6.267   4.124   4.241 -0.4972 -0.0437 -0.5470
 3558WAT     H214939   6.266   3.999   4.186 -0.3711 -0.5556  0.5837
 3558WAT    EPW14940   6.283   4.048   4.245 -0.1110  0.3231  0.7591
 3559WAT      O14941   6.500   4.240   4.564  0.4340  0.0139 -0.0332
 3559WAT     H114942   6.467   4.302   4.513  0.4419 -0.6128 -0.8285
 3559WAT     H214943   6.568   4.278   4.602  0.8494  0.3014 -1.0337
 3559WAT    EPW14944   6.505   4.255   4.562 -0.3031  0.2042  0.1075
 3560WAT      O14945   5.402   7.100   4.967 -0.5977 -0.2175  0.2885
 3560WAT     H114946   5.351   7.034   4.943 -2.7733  0.9131  1.5015
 3560WAT     H214947   5.361   7.171   4.935 -0.1178  0.7813  1.7640
 3560WAT    EPW14948   5.389   7.101   4.959  0.3136  0.3620  0.3003
 3561WAT      O14949   3.892   5.291   3.350 -0.0818 -0.4982  0.4753
 3561WAT     H114950   3.810   5.295   3.322 -0.1164 -2.3398  0.1808
 3561WAT     H214951   3.887   5.243   3.423  0.6664 -0.0918  0.8143
 3561WAT    EPW14952   3.879   5.284   3.357  0.1040  0.0696 -0.3115
 3562WAT      O14953   2.602   7.014   6.549  0.0739 -0.0211 -0.2230
 3562WAT     H114954   2.618   7.100   6.548  0.7044 -0.1371 -0.9719
 3562WAT     H214955   2.669   6.982   6.595  1.2437 -0.3506 -2.0517
 3562WAT    EPW14956   2.615   7.022   6.556 -0.2496  0.2404 -0.0402
 3563WAT      O14957   1.360   4.084   7.134 -0.4518  0.6031 -0.3726
 3563WAT     H114958   1.412   4.039   7.188 -0.4054  1.6514  0.4896
 3563WAT     H214959   1.286   4.038   7.135  0.2954 -0.7264 -1.3528
 3563WAT    EPW14960   1.357   4.070   7.142  0.3000  0.8098 -0.2335
 3564WAT      O14961  -0.017   7.053   7.388  0.2506 -0.3647  0.0260
 3564WAT     H114962   0.054   7.067   7.339  0.1214  0.0302 -0.0520
 3564WAT     H214963  -0.018   6.966   7.398 -0.3565 -0.5731 -1.6269
 3564WAT    EPW14964  -0.006   7.042   7.382 -0.0263 -0.0639  0.2988
 3565WAT      O14965   0.827   2.123   3.349  0.1222 -0.1925 -0.7863
 3565WAT     H114966   0.905   2.100   3.381  0.0771 -0.9461 -1.2103
 3565WAT     H214967   0.771   2.094   3.409  0.1227 -0.3553 -0.8639
 3565WAT    EPW14968   0.831   2.116   3.363  0.5992 -0.0142  0.0574
 3566WAT      O14969   6.225   3.617   0.600  0.3059  0.3299  0.4137
 3566WAT     H114970   6.215   3.651   0.679  0.8181 -0.7809  0.9868
 3566WAT     H214971   6.276   3.547   0.614 -1.5294 -1.3050 -0.5120
 3566WAT    EPW14972   6.231   3.612   0.614  0.1022 -0.6241  0.0109
 3567WAT      O14973   5.487   4.948   3.842  0.5698 -0.3506  0.1150
 3567WAT     H114974   5.532   5.008   3.887  0.8853 -1.8253  1.8870
 3567WAT     H214975   5.409   4.986   3.831  0.8961  0.5738  0.7977
 3567WAT    EPW14976   5.482   4.963   3.847 -0.0621 -0.1889  0.4384
 3568WAT      O14977   5.358   3.472   6.047  0.7615 -0.3714 -0.3692
 3568WAT     H114978   5.427   3.522   6.066  1.3990 -1.2476 -0.2747
 3568WAT     H214979   5.372   3.449   5.964  0.4444 -0.3463 -0.4307
 3568WAT    EPW14980   5.370   3.476   6.037  0.2856 -0.3375  0.0369
 3569WAT      O14981   0.638   5.998   5.222 -0.0038  0.1105 -0.1547
 3569WAT     H114982   0.680   6.020   5.295  0.0230 -0.0612 -0.1192
 3569WAT     H214983   0.656   5.913   5.212 -0.7898 -0.1075  0.1631
 3569WAT    EPW14984   0.647   5.989   5.232 -0.7640  0.3369  0.3358
 3570WAT      O14985   4.893   3.121   5.123  0.6825 -0.0995 -0.0072
 3570WAT     H114986   4.959   3.082   5.166  0.8580  0.0219 -0.1634
 3570WAT     H214987   4.920   3.122   5.040 -0.3337 -1.7350 -0.3947
 3570WAT    EPW14988   4.907   3.116   5.117  0.0338 -0.4905 -0.3900
 3571WAT      O14989   0.635   4.142   5.307  0.2982 -0.6667  0.1260
 3571WAT     H114990   0.585   4.187   5.362  1.9811  1.9770 -0.3259
 3571WAT     H214991   0.693   4.103   5.359  0.4733 -0.0978  0.3570
 3571WAT    EPW14992   0.636   4.143   5.323 -0.3610  0.0979  0.4982
 3572WAT      O14993   5.180   6.163   1.347 -0.3241 -0.6520  0.2322
 3572WAT     H114994   5.238   6.108   1.311 -1.4916 -1.2677 -0.7862
 3572WAT     H214995   5.135   6.193   1.279 -0.6928  0.4355  0.9277
 3572WAT    EPW14996   5.182   6.159   1.331 -0.1526 -0.7623 -0.2718
 3573WAT      O14997   4.395   5.348   0.168  0.5775 -0.0465 -0.2366
 3573WAT     H114998   4.413   5.285   0.226  1.9523 -0.8518 -1.4689
 3573WAT     H214999   4.439   5.417   0.200  1.4147 -0.5127 -0.3577
 3573WAT    EPW15000   4.404   5.349   0.182 -0.0967  0.7616  0.7864
 3574WAT      O15001   1.972   5.241   1.906  0.2440  0.0063  0.2241
 3574WAT     H115002   1.905   5.270   1.955 -0.1836 -1.6909  0.7077
 3574WAT     H215003   1.944   5.254   1.824  0.3444  1.5014  0.4001
 3574WAT    EPW15004   1.958   5.247   1.901 -0.0571 -0.0331  0.3623
 3575WAT      O15005   1.015   3.742   1.951 -0.1478 -0.5189 -0.0577
 3575WAT     H115006   1.083   3.751   2.005  0.3256  2.4857 -0.9590
 3575WAT     H215007   0.966   3.681   1.990  0.6561  0.7207  3.2535
 3575WAT    EPW15008   1.018   3.734   1.965 -0.0964 -0.3431  0.0105
 3576WAT      O15009   6.047   3.119   1.485  0.1420  0.3917  0.6843
 3576WAT     H115010   6.032   3.202   1.511  1.7306  1.3541 -1.2043
 3576WAT     H215011   6.108   3.091   1.540 -0.2207  0.5492  1.1768
 3576WAT    EPW15012   6.054   3.127   1.497 -0.0710 -0.2091 -0.4023
 3577WAT      O15013   7.060   5.077   4.411  0.2123  0.3996  0.6445
 3577WAT     H115014   7.067   5.052   4.494  0.3591 -1.1995  0.1999
 3577WAT     H215015   7.130   5.126   4.397 -0.4528  1.7343  1.7775
 3577WAT    EPW15016   7.071   5.080   4.421 -0.2044 -0.0065  0.5643
 3578WAT      O15017   7.260   2.616   5.831  0.0414 -0.7258  0.8159
 3578WAT     H115018   7.284   2.533   5.819  1.7421 -0.0698 -0.6949
 3578WAT     H215019   7.174   2.615   5.815  0.4939 -1.7525 -2.2606
 3578WAT    EPW15020   7.251   2.604   5.827  0.0786 -0.4353  0.9031
 3579WAT      O15021   6.048   1.782   3.629  0.4776 -0.0438 -0.1712
 3579WAT     H115022   5.976   1.735   3.618  0.2810  0.4801 -1.2744
 3579WAT     H215023   6.042   1.843   3.567  1.9276 -0.0702 -0.3760
 3579WAT    EPW15024   6.037   1.784   3.618 -0.4526 -0.4475  0.2679
 3580WAT      O15025   4.178   0.826   7.534  0.4741 -0.0193  0.2788
 3580WAT     H115026   4.165   0.911   7.518  2.3737  0.0799 -1.0557
 3580WAT     H215027   4.105   0.788   7.505  1.0537  0.8496 -2.5786
 3580WAT    EPW15028   4.165   0.833   7.527  0.1183 -0.9951 -0.1883
 3581WAT      O15029   0.434   3.017   5.115 -0.3148 -0.2611  0.2675
 3581WAT     H115030   0.410   3.096   5.143  0.0908 -0.2750  0.6638
 3581WAT     H215031   0.434   3.026   5.028  1.7431  0.8329  0.3117
 3581WAT    EPW15032   0.431   3.030   5.106  0.1411 -0.2163  0.4226
 3582WAT      O15033   4.332   0.766   0.992 -1.2048  0.6547  0.0820
 3582WAT     H115034   4.312   0.693   0.950 -2.3087  1.6130 -1.1340
 3582WAT     H215035   4.296   0.829   0.944  3.8512  2.6205 -1.8684
 3582WAT    EPW15036   4.324   0.764   0.979 -0.2917  0.2745 -0.1344
 3583WAT      O15037   0.530   4.777   2.509  0.1355  0.1246 -0.4094
 3583WAT     H115038   0.555   4.775   2.426  1.8989 -0.5851  0.0952
 3583WAT     H215039   0.582   4.718   2.548 -1.8351 -0.9031  0.8908
 3583WAT    EPW15040   0.541   4.768   2.503 -0.0151  0.2694 -0.1415
 3584WAT      O15041   7.576   4.022   3.412  0.0956 -0.3900  0.0816
 3584WAT     H115042   7.520   4.081   3.444  0.2124 -0.4247  0.3592
 3584WAT     H215043   7.635   4.070   3.368  0.0648 -0.3191  0.1179
 3584WAT    EPW15044   7.577   4.038   3.410 -0.6659  0.4639 -0.5022
 3585WAT      O15045   5.189   6.787   3.452 -0.0429  0.1618 -0.0758
 3585WAT     H115046   5.188   6.828   3.530 -1.3392  1.2822 -0.6512
 3585WAT     H215047   5.271   6.800   3.424  1.9855 -4.0153  2.9207
 3585WAT    EPW15048   5.201   6.795   3.460 -0.1959 -0.1368  0.3162
 3586WAT      O15049   3.821   3.647   1.498  0.0312 -0.7812  0.2600
 3586WAT     H115050   3.851   3.700   1.560 -1.5791  0.9023 -0.3099
 3586WAT     H215051   3.869   3.669   1.428  2.4764 -3.3059  0.9992
 3586WAT    EPW15052   3.833   3.658   1.497 -0.0909  0.1708  0.0434
 3587WAT      O15053   7.039   7.596   2.122  0.1679  0.3335 -0.3566
 3587WAT     H115054   6.994   7.526   2.098 -2.0237  0.8940  1.7839
 3587WAT     H215055   6.992   7.630   2.186  1.5381  3.3763 -0.8000
 3587WAT    EPW15056   7.026   7.591   2.128  0.0853  0.4128 -0.1451
 3588WAT      O15057   5.176   2.935   0.243 -0.5095  0.0281 -0.1499
 3588WAT     H115058   5.106   2.908   0.288 -0.2561 -1.6168 -0.6962
 3588WAT     H215059   5.238   2.941   0.304 -1.5962  4.0554  0.8901
 3588WAT    EPW15060   5.174   2.932   0.259  0.0093  0.3250  0.0657
 3589WAT      O15061   7.375   0.930   1.839  0.3250 -0.9503  0.4764
 3589WAT     H115062   7.364   0.844   1.841  1.2153 -1.0747  1.8615
 3589WAT     H215063   7.299   0.961   1.871 -0.1308 -1.1776 -0.3500
 3589WAT    EPW15064   7.362   0.922   1.844 -0.1590 -0.4987  0.2561
 3590WAT      O15065   1.429   5.339   2.033  0.7724  0.2304 -0.2142
 3590WAT     H115066   1.414   5.422   2.055  0.2040 -0.0896  0.6900
 3590WAT     H215067   1.388   5.294   2.096  1.5281 -0.7329 -0.3953
 3590WAT    EPW15068   1.421   5.345   2.045 -0.0209 -0.0850  0.3901
 3591WAT      O15069   4.582   4.419   0.664 -0.1358  0.4106 -0.6101
 3591WAT     H115070   4.554   4.485   0.614 -0.9430  0.8445  0.3659
 3591WAT     H215071   4.563   4.348   0.617 -1.4778  0.7779 -0.6609
 3591WAT    EPW15072   4.575   4.418   0.649 -0.3557 -0.2869  0.5837
 3592WAT      O15073   3.469   4.715   6.772  0.0833 -0.0624  0.5075
 3592WAT     H115074   3.549   4.685   6.756  0.7091  1.6065  0.3585
 3592WAT     H215075   3.473   4.740   6.856  0.0452  0.9161  0.2340
 3592WAT    EPW15076   3.481   4.714   6.782  0.2288 -0.5082  0.1220
 3593WAT      O15077   6.813   6.595   7.507 -0.2391 -0.4540  0.0825
 3593WAT     H115078   6.727   6.602   7.501 -0.2676  0.5473  1.2400
 3593WAT     H215079   6.841   6.676   7.493  0.4541 -0.5904  0.6328
 3593WAT    EPW15080   6.805   6.608   7.504  0.2013 -0.3200  0.2344
 3594WAT      O15081   5.969   5.095   3.214 -0.5088  0.3429 -0.2120
 3594WAT     H115082   5.958   5.022   3.168  0.4418  1.8133 -3.0125
 3594WAT     H215083   5.892   5.136   3.206  0.2340  1.4967 -2.4173
 3594WAT    EPW15084   5.956   5.090   3.206  0.2055  0.3719  0.6287
 3595WAT      O15085   1.385   6.962   1.372  0.1597  0.1188 -0.3933
 3595WAT     H115086   1.334   6.925   1.311  0.5887  0.2339 -0.8314
 3595WAT     H215087   1.338   7.030   1.399 -0.9753 -1.1326  0.9702
 3595WAT    EPW15088   1.371   6.967   1.367 -0.0924 -0.1333 -0.3910
 3596WAT      O15089   5.232   7.489   6.256  0.7668 -0.4473 -0.2827
 3596WAT     H115090   5.242   7.575   6.247 -0.5942 -0.4644 -3.0311
 3596WAT     H215091   5.176   7.481   6.323  1.6109  0.7070  0.5919
 3596WAT    EPW15092   5.225   7.500   6.265  0.0732  0.0362  0.2512
 3597WAT      O15093   3.092   3.145   6.481 -0.0715  0.4085  0.3985
 3597WAT     H115094   3.105   3.230   6.494 -2.6890  1.0497 -0.5544
 3597WAT     H215095   3.088   3.113   6.562 -3.1422  2.0200  1.0646
 3597WAT    EPW15096   3.093   3.153   6.495 -0.3773  0.1601 -0.1872
 3598WAT      O15097   3.798   1.799   6.097 -0.1047  0.1277  0.1712
 3598WAT     H115098   3.793   1.884   6.077 -2.6930 -0.4065 -2.0797
 3598WAT     H215099   3.730   1.787   6.150  0.8274 -0.3862  1.2774
 3598WAT    EPW15100   3.787   1.810   6.102  0.6908  0.3997 -0.8783
 3599WAT      O15101   4.908   0.900   4.107  0.3085  0.0153  0.0844
 3599WAT     H115102   4.955   0.831   4.078 -1.5679 -0.7227 -1.3983
 3599WAT     H215103   4.962   0.967   4.096  1.2039 -0.8560 -1.1585
 3599WAT    EPW15104   4.923   0.899   4.101  0.6842  0.6099 -0.0928
 3600WAT      O15105   1.034   3.304   2.834 -0.3173  0.0982 -0.0575
 3600WAT     H115106   1.097   3.301   2.893 -0.5558  2.2464  0.3902
 3600WAT     H215107   1.015   3.220   2.819  1.4061 -0.5373  1.0908
 3600WAT    EPW15108   1.040   3.291   2.840  0.6259 -0.5352 -0.2561
 3601WAT      O15109   2.250   7.446   3.616 -0.2798  0.1452  0.3737
 3601WAT     H115110   2.263   7.370   3.575 -1.0447  0.7106 -0.9823
 3601WAT     H215111   2.323   7.457   3.663  1.5306  0.3257 -2.2673
 3601WAT    EPW15112   2.263   7.436   3.617  0.0447 -0.2316  0.3965
 3602WAT      O15113   1.855   2.995   5.892 -0.3390 -0.3114 -0.7019
 3602WAT     H115114   1.906   2.997   5.962 -2.5499  0.1130  1.0178
 3602WAT     H215115   1.891   2.934   5.842  2.3972  0.7077 -0.1226
 3602WAT    EPW15116   1.868   2.986   5.895 -0.5555  0.0153 -0.4380
 3603WAT      O15117   7.022   7.365   4.618  0.3587  0.2243  0.2575
 3603WAT     H115118   7.022   7.302   4.678  0.4151 -0.0020  0.0221
 3603WAT     H215119   7.085   7.341   4.562  1.0660  0.9991  0.6962
 3603WAT    EPW15120   7.031   7.352   4.618  0.2200 -0.6919 -0.1914
 3604WAT      O15121   4.357   5.004   1.236  0.2564 -0.4588  0.4384
 3604WAT     H115122   4.344   4.946   1.173  1.2170 -0.6229  0.3744
 3604WAT     H215123   4.443   4.998   1.253  0.0971 -0.1270  1.4656
 3604WAT    EPW15124   4.368   4.995   1.230  0.2265 -0.4163 -0.3367
 3605WAT      O15125   4.832   3.437   4.994  0.2791 -0.5118  0.5187
 3605WAT     H115126   4.894   3.413   5.051  0.5535  0.6226  0.7292
 3605WAT     H215127   4.838   3.524   4.993  0.4304 -0.5043 -1.4370
 3605WAT    EPW15128   4.842   3.446   5.003  0.0801  0.3055 -0.1997
 3606WAT      O15129   3.956   3.984   5.002 -0.5543 -0.3792 -0.0342
 3606WAT     H115130   3.919   3.907   4.984  1.0315 -1.0079 -0.8595
 3606WAT     H215131   3.902   4.042   4.967 -2.2739 -1.0154  1.4180
 3606WAT    EPW15132   3.943   3.981   4.995 -0.3070  0.2330 -0.0066
 3607WAT      O15133   4.107   2.536   5.203  0.2491  0.3483  0.3762
 3607WAT     H115134   4.034   2.497   5.174  0.3667 -0.1314  0.7176
 3607WAT     H215135   4.161   2.470   5.218  1.3506  0.7670 -1.3897
 3607WAT    EPW15136   4.104   2.520   5.201  0.3869  0.0912 -0.3899
 3608WAT      O15137   1.261   2.490   3.616  0.2041  0.2699 -0.1256
 3608WAT     H115138   1.230   2.427   3.564 -0.5803  0.1878  0.4307
 3608WAT     H215139   1.347   2.473   3.619  0.4491  0.8790 -2.1911
 3608WAT    EPW15140   1.269   2.478   3.609  0.1760  0.0839  0.4609
 3609WAT      O15141   4.839   7.499   0.480 -0.2923 -0.0619  0.2880
 3609WAT     H115142   4.891   7.461   0.538 -2.5290 -2.4052  0.9381
 3609WAT     H215143   4.796   7.559   0.527 -1.3491 -1.2303  0.8421
 3609WAT    EPW15144   4.841   7.503   0.495 -0.3050 -0.2567 -0.0268
 3610WAT      O15145   3.354   5.095   5.526  0.6444 -0.3108 -0.2042
 3610WAT     H115146   3.330   5.125   5.604  1.1506 -1.4697  0.4184
 3610WAT     H215147   3.333   5.011   5.528  2.1850 -0.7460 -0.6703
 3610WAT    EPW15148   3.347   5.087   5.538 -0.1745 -0.0170 -0.0401
 3611WAT      O15149   1.027   1.060   0.441 -0.2007  0.4078  0.2632
 3611WAT     H115150   1.028   1.023   0.362  0.7178 -0.2913  0.5801
 3611WAT     H215151   1.112   1.063   0.463 -0.4286  0.7772  1.1292
 3611WAT    EPW15152   1.040   1.055   0.433 -0.0333 -0.4058 -0.1130
 3612WAT      O15153   3.881   0.233   2.872 -0.4011  0.0898 -0.6458
 3612WAT     H115154   3.838   0.309   2.875  0.9937  0.9559 -1.4632
 3612WAT     H215155   3.917   0.234   2.792 -0.1962 -1.3480 -0.5876
 3612WAT    EPW15156   3.880   0.245   2.860 -0.1672 -0.2877 -0.2643
 3613WAT      O15157   5.395   3.403   4.330  0.1148 -0.2011 -0.0615
 3613WAT     H115158   5.455   3.413   4.268  0.1124  1.4936  0.1639
 3613WAT     H215159   5.338   3.348   4.294  1.2707 -1.0643 -0.6543
 3613WAT    EPW15160   5.396   3.397   4.316 -0.2235 -0.0522  0.0213
 3614WAT      O15161   6.194   5.738   1.441 -0.1917  0.3420  0.3338
 3614WAT     H115162   6.258   5.680   1.428 -0.9434 -0.3184 -0.6013
 3614WAT     H215163   6.229   5.813   1.415 -0.3920 -0.3330 -2.1492
 3614WAT    EPW15164   6.209   5.740   1.435  0.4869 -0.0533  0.3977
 3615WAT      O15165   6.682   2.900   4.467  0.4327  0.0608 -0.0209
 3615WAT     H115166   6.713   2.952   4.404 -1.1865  2.6019  1.0850
 3615WAT     H215167   6.752   2.879   4.514  1.0898  1.9315 -0.1001
 3615WAT    EPW15168   6.697   2.905   4.464  0.3165 -0.0693  0.0634
 3616WAT      O15169   5.748   4.816   1.489  0.0493 -0.1785 -0.0438
 3616WAT     H115170   5.776   4.734   1.484 -2.2642 -1.2423  2.0815
 3616WAT     H215171   5.696   4.815   1.559  0.2125  3.2156  0.2755
 3616WAT    EPW15172   5.744   4.804   1.499  0.0348 -0.1768 -0.4201
 3617WAT      O15173   6.637   5.902   2.157  0.2150 -0.0825  0.3575
 3617WAT     H115174   6.722   5.888   2.170  0.5777  0.2326 -1.4313
 3617WAT     H215175   6.601   5.823   2.167  0.7180 -0.2505  0.9087
 3617WAT    EPW15176   6.644   5.888   2.161  0.0365 -0.2451 -0.2653
 3618WAT      O15177   4.009   7.420   2.304 -0.0489 -0.0574  0.0026
 3618WAT     H115178   4.065   7.445   2.365 -1.2883 -0.6740  1.4706
 3618WAT     H215179   4.037   7.340   2.281  1.8337  1.0989 -2.1004
 3618WAT    EPW15180   4.021   7.412   2.310 -0.1584  0.1143  0.5724
 3619WAT      O15181   6.972   0.111   6.749 -0.5085  0.2773 -0.1660
 3619WAT     H115182   7.009   0.037   6.720 -1.7197 -0.7202  0.7569
 3619WAT     H215183   6.902   0.084   6.793 -0.3910  1.9006  1.1478
 3619WAT    EPW15184   6.967   0.096   6.751  0.0100 -1.0697 -0.2443
 3620WAT      O15185   4.990   7.527   5.587  0.2994  0.1218 -0.0109
 3620WAT     H115186   4.987   7.612   5.604 -2.2010 -0.0230  0.6824
 3620WAT     H215187   5.025   7.493   5.660  2.9069  0.5897 -0.9274
 3620WAT    EPW15188   4.995   7.534   5.601 -0.2481 -0.6797 -0.0999
 3621WAT      O15189   7.202   4.935   3.457 -0.8832 -0.2292 -0.4052
 3621WAT     H115190   7.128   4.980   3.465 -0.7864 -0.0693 -0.4007
 3621WAT     H215191   7.182   4.856   3.488 -1.2907 -0.4374 -1.1677
 3621WAT    EPW15192   7.188   4.930   3.463 -0.0577  0.2405 -0.3679
 3622WAT      O15193   5.148   6.961   5.225  0.0823 -0.1887  0.1736
 3622WAT     H115194   5.232   6.980   5.214 -0.1351  0.2538 -0.8172
 3622WAT     H215195   5.147   6.914   5.299  1.2259 -0.4335  0.0513
 3622WAT    EPW15196   5.160   6.957   5.234 -0.2866  0.0433  0.3346
 3623WAT      O15197   2.201   6.966   0.383 -0.4093  0.2799  0.3980
 3623WAT     H115198   2.254   6.898   0.372 -2.1793 -0.7773 -2.7641
 3623WAT     H215199   2.246   7.033   0.349  0.3798  0.2723  1.3603
 3623WAT    EPW15200   2.216   6.966   0.377  0.3005 -0.6094  0.1076
 3624WAT      O15201   3.049   2.235   0.538 -0.3041  0.0295  1.0785
 3624WAT     H115202   3.075   2.153   0.555  0.2111 -0.3359 -1.1853
 3624WAT     H215203   3.123   2.275   0.515 -0.7618  0.7750  0.8955
 3624WAT    EPW15204   3.064   2.229   0.537 -0.4056 -0.7059  0.5951
 3625WAT      O15205   6.355   6.706   5.791  0.2591 -0.4534  0.0321
 3625WAT     H115206   6.366   6.634   5.743  0.4973 -0.1979 -0.3063
 3625WAT     H215207   6.269   6.709   5.804  0.3308 -1.2429  0.7526
 3625WAT    EPW15208   6.344   6.696   5.786  0.5356  0.1939 -0.7885
 3626WAT      O15209   0.259   5.576   3.366  0.7420  0.7500 -0.2082
 3626WAT     H115210   0.297   5.574   3.444  1.2014  2.3959 -0.3491
 3626WAT     H215211   0.189   5.627   3.379  0.0137 -0.1363 -0.5527
 3626WAT    EPW15212   0.254   5.583   3.380  0.0582  0.5543 -0.6706
 3627WAT      O15213   2.204   4.552   1.708 -0.6158  0.0429  0.0707
 3627WAT     H115214   2.216   4.619   1.763  1.7106 -1.3855  1.4615
 3627WAT     H215215   2.182   4.486   1.761  1.3844 -1.2995 -0.6616
 3627WAT    EPW15216   2.202   4.552   1.724 -0.4789 -0.0232  0.3261
 3628WAT      O15217   2.822   6.402   0.697 -0.3014 -0.1852 -0.0727
 3628WAT     H115218   2.851   6.349   0.635 -2.3159 -1.1666 -0.2575
 3628WAT     H215219   2.773   6.460   0.653  1.3492  1.5167  0.1968
 3628WAT    EPW15220   2.819   6.403   0.681  0.0332  0.5079  0.2580
 3629WAT      O15221   5.298   7.256   3.835  0.4632  0.0242  0.2330
 3629WAT     H115222   5.294   7.318   3.897  1.0317  0.9076 -0.5791
 3629WAT     H215223   5.296   7.182   3.880 -1.1659  0.5925  1.1891
 3629WAT    EPW15224   5.297   7.254   3.851  0.6249  0.0553 -0.1688
 3630WAT      O15225   3.763   1.424   1.343 -0.6125 -0.7986  0.3445
 3630WAT     H115226   3.749   1.350   1.388  2.3448 -1.7965 -0.2072
 3630WAT     H215227   3.838   1.454   1.374 -1.7527  2.1500  0.6163
 3630WAT    EPW15228   3.772   1.417   1.354 -0.6493  0.1722  0.1743
 3631WAT      O15229   2.073   2.267   4.145 -0.0196  0.1239  0.3011
 3631WAT     H115230   2.003   2.295   4.190  0.7352 -1.7143  2.8928
 3631WAT     H215231   2.072   2.181   4.158  2.2239 -0.0568 -0.3807
 3631WAT    EPW15232   2.062   2.258   4.154  0.1218 -0.3505  0.1270
 3632WAT      O15233   0.741   6.324   5.614 -0.5579  0.3052 -0.2766
 3632WAT     H115234   0.719   6.297   5.694  0.8537 -0.8260 -0.2175
 3632WAT     H215235   0.797   6.389   5.630  1.1622 -1.0771 -0.2091
 3632WAT    EPW15236   0.746   6.329   5.628  0.4458  0.1291  0.5087
 3633WAT      O15237   5.805   0.213   4.762  0.0872 -0.0838  0.2779
 3633WAT     H115238   5.879   0.178   4.794  0.6924 -0.5456 -1.4721
 3633WAT     H215239   5.751   0.215   4.830  1.2048 -1.2324  1.2388
 3633WAT    EPW15240   5.808   0.208   4.776 -0.9329  0.4253  0.6333
 3634WAT      O15241   0.506   7.180   0.191 -0.3174  0.1734 -0.3417
 3634WAT     H115242   0.583   7.184   0.232 -0.2568  0.8361 -0.5153
 3634WAT     H215243   0.484   7.264   0.179 -0.3820 -0.0072 -1.5847
 3634WAT    EPW15244   0.514   7.193   0.196 -0.5353  0.1982  0.3660
 3635WAT      O15245   6.126   0.022   3.557 -0.1554  0.5716 -0.2162
 3635WAT     H115246   6.192   0.020   3.500 -0.9320  2.7869 -1.2809
 3635WAT     H215247   6.076  -0.045   3.532  1.0626 -0.4111 -0.1240
 3635WAT    EPW15248   6.129   0.012   3.545 -0.2673 -0.3495 -0.0777
 3636WAT      O15249   2.455   2.751   3.113  0.0059 -0.7482  0.5021
 3636WAT     H115250   2.394   2.806   3.083 -0.2442 -1.3558 -0.1343
 3636WAT     H215251   2.488   2.793   3.183  1.5471  1.3425 -1.3160
 3636WAT    EPW15252   2.451   2.765   3.119  0.1609  0.2693  0.0771
 3637WAT      O15253   7.183   1.158   2.272  0.6592 -1.0093 -0.3895
 3637WAT     H115254   7.160   1.074   2.262 -2.2578 -0.2458 -1.0485
 3637WAT     H215255   7.251   1.167   2.219  0.5778 -2.8061 -0.8562
 3637WAT    EPW15256   7.189   1.147   2.263 -0.5914  0.5464  0.7929
 3638WAT      O15257   4.917   6.873   3.930 -0.4456 -0.0332 -0.0097
 3638WAT     H115258   4.928   6.789   3.906  0.2801  0.1570 -0.3552
 3638WAT     H215259   4.900   6.914   3.855 -1.6583  0.0109  0.2601
 3638WAT    EPW15260   4.916   6.866   3.915 -0.0980 -0.3736  0.0048
 3639WAT      O15261   1.792   5.933   4.872 -0.0008  0.2137  0.3329
 3639WAT     H115262   1.719   5.940   4.824 -0.6575  2.4901  1.4874
 3639WAT     H215263   1.852   5.976   4.824 -0.4502  1.7548  1.0796
 3639WAT    EPW15264   1.790   5.941   4.858  0.1102  0.3829 -0.0299
 3640WAT      O15265   3.374   3.644   6.384  0.1408  0.1903  0.0704
 3640WAT     H115266   3.351   3.652   6.300  1.2783  0.9919 -0.1864
 3640WAT     H215267   3.309   3.684   6.426 -1.6225 -2.1666 -0.2127
 3640WAT    EPW15268   3.361   3.651   6.377  0.2600  0.7230 -0.0091
 3641WAT      O15269   2.273   2.299   7.447  0.0076  0.5743  0.1765
 3641WAT     H115270   2.329   2.363   7.428  0.8396 -0.6557 -1.7681
 3641WAT     H215271   2.311   2.228   7.414 -2.4171 -0.4157 -0.7207
 3641WAT    EPW15272   2.287   2.298   7.439  0.1496  0.2486  0.3635
 3642WAT      O15273   6.514   5.650   2.160  0.1777  0.4606  0.0812
 3642WAT     H115274   6.492   5.666   2.076  1.1396 -0.8282 -0.4351
 3642WAT     H215275   6.451   5.692   2.205 -0.1557  1.4940 -1.2584
 3642WAT    EPW15276   6.501   5.659   2.154  0.0854  0.1352  0.7287
 3643WAT      O15277   6.678   2.677   0.868  0.7976  0.3059  0.0904
 3643WAT     H115278   6.731   2.608   0.877  1.0018  0.0730 -2.2407
 3643WAT     H215279   6.732   2.741   0.842  0.1204  0.3791 -1.1786
 3643WAT    EPW15280   6.694   2.676   0.866  0.4337  0.4855  0.0914
 3644WAT      O15281   7.524   3.840   3.212 -0.1275  0.3094  0.5326
 3644WAT     H115282   7.519   3.883   3.288  0.2124 -1.1209  1.3786
 3644WAT     H215283   7.585   3.780   3.225  0.6368  0.6384 -1.2102
 3644WAT    EPW15284   7.532   3.838   3.225 -0.3832  0.1159 -0.1634
 3645WAT      O15285   3.442   3.140   2.190  0.3171 -0.2224  0.1208
 3645WAT     H115286   3.454   3.204   2.248 -1.4287  0.8454 -0.6072
 3645WAT     H215287   3.367   3.103   2.215 -0.3719  0.1355 -1.2974
 3645WAT    EPW15288   3.432   3.144   2.202 -0.5622 -0.0112  0.1015
 3646WAT      O15289   2.907   6.142   6.627  0.3128 -0.1391  0.0821
 3646WAT     H115290   2.973   6.125   6.682  1.2849  1.0123 -0.6861
 3646WAT     H215291   2.880   6.063   6.602  3.6371 -0.7600 -2.1966
 3646WAT    EPW15292   2.913   6.128   6.632  0.0211 -0.1539  0.0379
 3647WAT      O15293   0.505   3.510   0.202  0.4547 -0.1344  0.3989
 3647WAT     H115294   0.591   3.502   0.216  0.8918  1.7460 -0.8285
 3647WAT     H215295   0.489   3.450   0.141  1.2321  0.4318 -0.3953
 3647WAT    EPW15296   0.515   3.500   0.195  0.5813 -0.1845  0.4857
 3648WAT      O15297   2.862   4.370   2.149  0.5206 -0.2174  0.8980
 3648WAT     H115298   2.899   4.448   2.161  0.8058 -0.3569  0.9499
 3648WAT     H215299   2.813   4.381   2.078  0.6063 -0.0073  0.8704
 3648WAT    EPW15300   2.860   4.383   2.140 -0.3498  0.1495 -0.1056
 3649WAT      O15301   7.093   2.932   6.056  0.3838 -0.0280 -0.0472
 3649WAT     H115302   7.059   2.925   5.975 -0.5740 -2.0169  0.4496
 3649WAT     H215303   7.029   2.970   6.102  0.2158 -0.4979  0.1198
 3649WAT    EPW15304   7.078   2.936   6.051  0.5624 -0.5962  0.6521
 3650WAT      O15305   6.691   2.677   5.044 -0.3361  0.4006  0.0027
 3650WAT     H115306   6.708   2.759   5.069 -0.7305  0.5342 -0.1687
 3650WAT     H215307   6.604   2.676   5.036 -0.4543 -0.3576  1.1699
 3650WAT    EPW15308   6.681   2.689   5.047  0.3942 -0.3827 -0.1863
 3651WAT      O15309   1.328   4.017   2.124 -0.3033  0.0893 -0.0575
 3651WAT     H115310   1.390   4.079   2.123  1.1345 -1.2831 -1.1110
 3651WAT     H215311   1.288   4.027   2.047 -0.1583 -0.1748 -0.1710
 3651WAT    EPW15312   1.332   4.028   2.113  0.7749  0.0940 -0.5722
 3652WAT      O15313   2.551   3.902   5.049  0.1192 -0.3792 -0.0141
 3652WAT     H115314   2.538   3.889   5.135 -2.3698  1.9024  0.0733
 3652WAT     H215315   2.608   3.968   5.047  0.4693 -0.6800 -0.1637
 3652WAT    EPW15316   2.558   3.910   5.062 -0.1258 -0.2070 -0.5081
 3653WAT      O15317   1.111   5.457   5.448  0.0385 -0.1081  0.2235
 3653WAT     H115318   1.132   5.424   5.526 -0.0776  1.6790  1.0709
 3653WAT     H215319   1.085   5.388   5.402  0.1973 -1.2182  1.7430
 3653WAT    EPW15320   1.110   5.442   5.453 -0.2042  0.2284  0.0649
 3654WAT      O15321   1.203   1.074   1.170  0.0613  0.2364 -0.2188
 3654WAT     H115322   1.153   1.002   1.178  0.9716 -0.5299 -1.1361
 3654WAT     H215323   1.145   1.136   1.148 -0.8160 -0.0748  1.0990
 3654WAT    EPW15324   1.187   1.073   1.168  0.1321  0.4818 -0.5507
 3655WAT      O15325   5.032   4.688   2.273 -0.0653 -1.0494 -0.2156
 3655WAT     H115326   5.099   4.743   2.270 -0.1606 -0.9547 -0.7167
 3655WAT     H215327   4.967   4.735   2.307 -0.0126 -0.9958 -0.1901
 3655WAT    EPW15328   5.032   4.703   2.278 -0.3746  0.0364  0.5822
 3656WAT      O15329   0.803   3.685   0.805  0.7335 -0.0525 -0.4980
 3656WAT     H115330   0.751   3.678   0.735  1.3292 -0.6409 -0.8934
 3656WAT     H215331   0.882   3.669   0.774  0.8785 -1.5906  0.5134
 3656WAT    EPW15332   0.807   3.682   0.790  0.6221  0.2838 -0.0034
 3657WAT      O15333   6.566   5.021   0.209 -0.3645 -0.3097  0.1594
 3657WAT     H115334   6.546   4.938   0.191  0.6833 -0.6863  0.6509
 3657WAT     H215335   6.610   5.047   0.139  1.3011 -0.9141  0.9185
 3657WAT    EPW15336   6.569   5.012   0.196  0.2226 -0.2893  0.3805
 3658WAT      O15337   4.016   6.919   4.781 -0.3715  0.2692 -0.0815
 3658WAT     H115338   4.010   6.966   4.855  0.8888  0.7592 -0.2519
 3658WAT     H215339   4.047   6.977   4.723 -0.8961 -0.2282 -0.8802
 3658WAT    EPW15340   4.020   6.935   4.784 -0.4233 -0.1624  0.2180
 3659WAT      O15341   5.133   2.726   1.680  0.3278 -0.1661  0.0265
 3659WAT     H115342   5.120   2.812   1.679 -0.6081 -0.3008 -0.7019
 3659WAT     H215343   5.055   2.693   1.662  0.5066 -1.2042  0.9747
 3659WAT    EPW15344   5.120   2.734   1.677 -1.1373 -0.0863  0.4280
 3660WAT      O15345   5.625   1.324   0.213  0.1286 -0.1949 -0.1555
 3660WAT     H115346   5.677   1.367   0.158 -0.1948 -0.1852 -0.4569
 3660WAT     H215347   5.645   1.357   0.291 -0.4689  0.8744 -0.4393
 3660WAT    EPW15348   5.635   1.335   0.216  1.2655 -0.1739  0.4524
 3661WAT      O15349   1.225   4.580   2.783  0.6841 -0.6324  0.4514
 3661WAT     H115350   1.204   4.579   2.699 -1.5028 -0.3001  0.9325
 3661WAT     H215351   1.217   4.664   2.806  0.0163 -0.8979  1.2495
 3661WAT    EPW15352   1.221   4.592   2.774 -0.4305  0.0486 -0.1026
 3662WAT      O15353   6.036   0.098   5.864  0.2690 -0.5517  0.4346
 3662WAT     H115354   6.054   0.182   5.884  1.1531 -1.0656  2.0006
 3662WAT     H215355   6.074   0.088   5.786  0.5173  0.3910  0.4140
 3662WAT    EPW15356   6.045   0.109   5.855 -0.2880 -0.0841  0.2146
 3663WAT      O15357   1.035   5.958   7.208  0.7336  0.0366  0.8028
 3663WAT     H115358   1.027   5.902   7.274  1.4131  0.2574  1.0827
 3663WAT     H215359   0.959   6.001   7.208  0.7298  0.0411  1.4503
 3663WAT    EPW15360   1.023   5.956   7.218  0.5483 -0.1134 -0.0406
 3664WAT      O15361   0.473   0.755   4.602 -0.3911  0.5674  0.0544
 3664WAT     H115362   0.514   0.832   4.604  2.0871 -0.6139  2.4666
 3664WAT     H215363   0.530   0.702   4.562 -0.2298 -0.7485  1.8585
 3664WAT    EPW15364   0.487   0.758   4.596 -0.6652 -0.1211  0.7857
 3665WAT      O15365   6.145   0.619   0.511 -0.4944  0.0592  0.5351
 3665WAT     H115366   6.112   0.653   0.584 -0.4441  0.1722  0.5055
 3665WAT     H215367   6.210   0.568   0.539  0.5848  1.3485  0.4736
 3665WAT    EPW15368   6.150   0.616   0.526 -0.0919  0.3643 -0.2927
 3666WAT      O15369   4.719   7.217   3.115 -0.2119 -0.0059 -0.0354
 3666WAT     H115370   4.709   7.166   3.185 -2.2234 -1.2025 -1.0877
 3666WAT     H215371   4.690   7.294   3.142  0.3231 -0.0931  0.8246
 3666WAT    EPW15372   4.713   7.221   3.129  0.4630  0.0807  0.6677
 3667WAT      O15373   6.410   6.557   2.959  0.1839  0.0345  0.1462
 3667WAT     H115374   6.388   6.484   3.001  1.5125 -0.3735  0.1930
 3667WAT     H215375   6.494   6.568   2.980  0.5877  0.4195 -1.5051
 3667WAT    EPW15376   6.419   6.548   2.968 -0.1296 -0.4744  0.0464
 3668WAT      O15377   7.125   6.105   1.333  0.0413 -0.1259  0.4487
 3668WAT     H115378   7.062   6.046   1.347 -0.0962  0.1913  1.2351
 3668WAT     H215379   7.163   6.078   1.259  0.6445 -1.7832  1.3192
 3668WAT    EPW15380   7.121   6.092   1.324 -0.3953  0.4351 -0.4739
 3669WAT      O15381   2.434   6.793   6.009  0.3274 -0.2655 -0.2167
 3669WAT     H115382   2.506   6.751   5.983  0.7559  0.2779  0.0738
 3669WAT     H215383   2.400   6.823   5.934  0.8111  0.1165 -0.2896
 3669WAT    EPW15384   2.439   6.791   5.994 -0.2961  0.8105 -0.3046
 3670WAT      O15385   1.042   1.841   3.728 -0.6347  0.3602 -0.0048
 3670WAT     H115386   1.044   1.773   3.783 -1.9214  1.9821  2.2106
 3670WAT     H215387   1.126   1.851   3.705 -0.3178 -1.4969  0.1827
 3670WAT    EPW15388   1.055   1.833   3.733  0.6225  0.0962 -0.2921
 3671WAT      O15389   6.151   4.134   2.039 -0.7941  0.1239 -0.2261
 3671WAT     H115390   6.205   4.175   2.093 -0.4954 -0.0010 -0.4242
 3671WAT     H215391   6.095   4.094   2.092 -0.9052  0.5458 -0.0264
 3671WAT    EPW15392   6.151   4.134   2.055 -0.0347  0.0305  0.4376
 3672WAT      O15393   6.447   6.127   6.678  0.2384 -0.1742  0.2553
 3672WAT     H115394   6.485   6.168   6.745  1.3654  0.3864 -0.6776
 3672WAT     H215395   6.366   6.157   6.678  0.7509  1.2892  0.2416
 3672WAT    EPW15396   6.441   6.137   6.688  0.0352 -0.2445  0.1799
 3673WAT      O15397   5.310   6.477   3.121 -1.1523 -0.3323  0.0124
 3673WAT     H115398   5.345   6.397   3.124 -0.7622 -0.1449  0.5382
 3673WAT     H215399   5.232   6.466   3.159 -2.0216 -0.9096 -1.8237
 3673WAT    EPW15400   5.303   6.464   3.127 -0.1299 -0.1556 -0.2291
 3674WAT      O15401   7.336   5.720   6.238  0.1041 -0.2193  0.1639
 3674WAT     H115402   7.392   5.787   6.227  0.3921 -0.5184 -0.2134
 3674WAT     H215403   7.277   5.733   6.176  0.1317 -0.2842  0.1240
 3674WAT    EPW15404   7.336   5.732   6.227  0.6560 -0.3817  0.6995
 3675WAT      O15405   0.879   0.328   6.349 -0.1891  0.0529  0.2442
 3675WAT     H115406   0.889   0.242   6.335 -0.0508  0.5125 -3.5887
 3675WAT     H215407   0.802   0.333   6.389  0.0306 -1.8472  1.0298
 3675WAT    EPW15408   0.869   0.316   6.353 -0.2258 -0.4525 -0.3019
 3676WAT      O15409   2.986   3.070   1.285 -0.1195  0.1708  0.6176
 3676WAT     H115410   3.027   3.018   1.228  0.2356 -0.6287  1.5883
 3676WAT     H215411   2.904   3.072   1.255  0.5922  2.1447 -1.6131
 3676WAT    EPW15412   2.980   3.063   1.272  0.3793 -0.1574  0.0225
 3677WAT      O15413   5.909   4.336   3.755  0.6779  0.2685 -0.1189
 3677WAT     H115414   5.943   4.275   3.808  0.1458  0.0629 -0.0083
 3677WAT     H215415   5.971   4.396   3.751  0.5571  0.5074  1.1043
 3677WAT    EPW15416   5.923   4.336   3.762  0.3033  0.3328 -0.0786
 3678WAT      O15417   1.139   6.843   6.763 -0.2276 -0.1271 -0.3223
 3678WAT     H115418   1.209   6.798   6.788 -0.5797 -0.2962  0.3823
 3678WAT     H215419   1.137   6.911   6.818 -1.7094 -1.1569  0.9827
 3678WAT    EPW15420   1.149   6.846   6.775 -0.0397  0.5342 -0.2205
 3679WAT      O15421   3.226   2.189   4.032  0.1396  0.0593  0.0635
 3679WAT     H115422   3.228   2.249   4.096  1.6230 -0.5085  0.5916
 3679WAT     H215423   3.224   2.113   4.075 -0.2398 -0.3038 -0.5835
 3679WAT    EPW15424   3.226   2.187   4.048  0.2560 -0.0303 -0.1776
 3680WAT      O15425   0.809   2.367   6.881  0.0967 -0.0548 -0.1707
 3680WAT     H115426   0.736   2.412   6.898  1.0059  0.4124  3.0404
 3680WAT     H215427   0.864   2.427   6.850 -0.0109  0.1875  0.1035
 3680WAT    EPW15428   0.806   2.382   6.879 -0.6815 -0.4764 -0.0499
 3681WAT      O15429   6.877   5.198   0.677  0.1206  0.2415  0.4960
 3681WAT     H115430   6.817   5.201   0.740 -2.6855 -0.2357 -1.8962
 3681WAT     H215431   6.900   5.113   0.675  2.0482  0.6484  2.2949
 3681WAT    EPW15432   6.872   5.186   0.686 -0.0734  0.3640  0.4853
 3682WAT      O15433   5.411   1.040   0.662  0.5836  0.8996 -0.7888
 3682WAT     H115434   5.336   1.023   0.703  1.9503 -0.9856  1.0540
 3682WAT     H215435   5.425   0.969   0.613  0.6767  1.7086 -2.0061
 3682WAT    EPW15436   5.402   1.027   0.661  0.2328  0.3731  0.1945
 3683WAT      O15437   1.568   2.602   3.129 -0.2447 -0.2132 -0.0721
 3683WAT     H115438   1.578   2.679   3.089 -0.5355  1.3173  2.6009
 3683WAT     H215439   1.482   2.589   3.129 -0.5862  1.3383  2.5259
 3683WAT    EPW15440   1.557   2.612   3.123  0.5673  0.0665 -0.1531
 3684WAT      O15441   2.557   4.617   4.384 -0.3639  0.2752  0.0842
 3684WAT     H115442   2.572   4.703   4.390 -0.5936  0.3547 -0.3933
 3684WAT     H215443   2.501   4.602   4.448 -0.5524  0.5431 -0.0130
 3684WAT    EPW15444   2.551   4.628   4.394  0.3402 -0.4247  0.1951
 3685WAT      O15445   5.401   2.440   2.225 -0.2245  0.1173 -0.3566
 3685WAT     H115446   5.439   2.430   2.148  0.6654 -0.1797  0.1055
 3685WAT     H215447   5.425   2.369   2.269 -1.5905 -0.2474 -0.1441
 3685WAT    EPW15448   5.410   2.428   2.220  0.0293  0.1548  0.0359
 3686WAT      O15449   6.183   6.219   5.054 -0.6600 -0.0224  0.3076
 3686WAT     H115450   6.264   6.237   5.026 -0.6762  1.3326  1.0573
 3686WAT     H215451   6.150   6.298   5.072 -2.1212 -0.5660  0.0971
 3686WAT    EPW15452   6.190   6.234   5.052  0.2134  0.5347  0.5160
 3687WAT      O15453   3.183   5.901   2.385 -0.3850  0.4631 -0.3394
 3687WAT     H115454   3.231   5.942   2.325  0.3221 -1.9046 -1.5318
 3687WAT     H215455   3.233   5.832   2.407 -2.3066 -0.8964 -0.0021
 3687WAT    EPW15456   3.197   5.897   2.380 -0.4012  0.1574  0.7391
 3688WAT      O15457   6.051   2.216   5.085  0.2955  0.3180  0.2700
 3688WAT     H115458   6.114   2.156   5.081 -0.1678 -0.3221  2.0077
 3688WAT     H215459   6.093   2.291   5.071  1.8224  0.1079  3.0276
 3688WAT    EPW15460   6.066   2.219   5.082 -0.7797  0.5239  0.2470
 3689WAT      O15461   6.170   3.564   6.506 -0.4126 -0.6023  0.0480
 3689WAT     H115462   6.151   3.513   6.575  0.2285 -0.0530  0.6421
 3689WAT     H215463   6.203   3.507   6.448  3.6126 -0.5279  1.9607
 3689WAT    EPW15464   6.172   3.548   6.508  0.0065 -0.6899 -0.2313
 3690WAT      O15465   6.590   0.646   5.857  0.1996  0.5380 -0.1165
 3690WAT     H115466   6.585   0.562   5.835 -1.0909  0.6674 -0.4160
 3690WAT     H215467   6.675   0.659   5.871  0.2451 -1.2308  1.6461
 3690WAT    EPW15468   6.602   0.636   5.856 -0.1931 -0.3793 -0.3054
 3691WAT      O15469   5.579   2.874   5.157  0.3120  0.6240 -0.0923
 3691WAT     H115470   5.666   2.869   5.155  0.2444 -0.9483 -1.6539
 3691WAT     H215471   5.560   2.928   5.091  0.0749 -0.0055 -0.5471
 3691WAT    EPW15472   5.589   2.881   5.147 -0.0203  0.8111 -0.4315
 3692WAT      O15473   7.533   2.794   5.169  0.3946 -0.4453 -0.1363
 3692WAT     H115474   7.499   2.767   5.094 -0.5116 -0.8983  0.4221
 3692WAT     H215475   7.464   2.806   5.220  0.9004  1.2191  0.2035
 3692WAT    EPW15476   7.518   2.792   5.165  0.2093  0.1845  0.3402
 3693WAT      O15477   7.385   2.825   2.665 -0.0580 -0.4608 -0.3708
 3693WAT     H115478   7.384   2.779   2.739  0.0121 -0.1923 -0.2022
 3693WAT     H215479   7.407   2.906   2.691 -1.6076  0.0235 -0.4680
 3693WAT    EPW15480   7.388   2.830   2.680  0.1088 -0.1852 -0.1143
 3694WAT      O15481   1.793   4.713   5.255  0.3025 -0.2757  0.2058
 3694WAT     H115482   1.817   4.671   5.328  1.4847 -0.2007 -0.1152
 3694WAT     H215483   1.831   4.791   5.264 -0.3259  0.0707 -0.0759
 3694WAT    EPW15484   1.802   4.719   5.267  0.3889 -0.0066 -0.5139
 3695WAT      O15485   0.346   6.503   0.462  0.0436  0.4836 -0.2302
 3695WAT     H115486   0.269   6.494   0.423  0.3305 -1.0932 -0.4981
 3695WAT     H215487   0.327   6.537   0.540 -0.9719 -0.2965 -0.1286
 3695WAT    EPW15488   0.332   6.506   0.468  0.1032  0.3657  0.2533
 3696WAT      O15489   0.564   3.361   0.708 -0.4446  0.2984 -0.2041
 3696WAT     H115490   0.627   3.329   0.759 -0.8612 -0.0015  0.1291
 3696WAT     H215491   0.540   3.292   0.660  1.0210  0.9198 -1.9523
 3696WAT    EPW15492   0.570   3.346   0.708 -0.1458  0.2316 -0.0331
 3697WAT      O15493   0.620   6.064   0.261 -0.3427  0.4487  0.2159
 3697WAT     H115494   0.673   6.009   0.304  0.5490  0.0467 -1.2920
 3697WAT     H215495   0.619   6.136   0.310 -0.1838 -0.3242  1.3876
 3697WAT    EPW15496   0.628   6.066   0.274 -0.2931  0.4317  0.2680
 3698WAT      O15497   5.524   5.309   2.906  0.7125  0.4219  0.1241
 3698WAT     H115498   5.503   5.349   2.980  0.0312  1.5710 -0.6602
 3698WAT     H215499   5.446   5.297   2.867  0.9135 -1.4199  0.1923
 3698WAT    EPW15500   5.509   5.313   2.911 -0.4571 -0.5956  0.3104
 3699WAT      O15501   4.648   4.691   2.255 -0.4414  0.2695  0.5380
 3699WAT     H115502   4.596   4.675   2.323  0.1151 -0.1288  0.8775
 3699WAT     H215503   4.688   4.614   2.242 -0.3844  0.4021 -0.1069
 3699WAT    EPW15504   4.646   4.677   2.263 -0.1384 -0.4494 -0.2315
 3700WAT      O15505   2.894   5.443   2.701 -0.3009 -0.5928 -0.5239
 3700WAT     H115506   2.969   5.471   2.737  0.6879 -1.3209 -1.8906
 3700WAT     H215507   2.869   5.379   2.754  0.4020 -0.7607 -0.3732
 3700WAT    EPW15508   2.902   5.438   2.714  0.2236 -0.0222 -0.3057
 3701WAT      O15509   1.942   2.554   0.306 -1.1713  0.2513  0.1618
 3701WAT     H115510   1.969   2.484   0.352 -1.6669  0.4250  0.7274
 3701WAT     H215511   1.962   2.533   0.224  1.4910  0.7143  0.5923
 3701WAT    EPW15512   1.949   2.541   0.301  0.4530  0.0534  0.1247
 3702WAT      O15513   7.104   1.233   4.673 -0.3760 -0.2522  0.4046
 3702WAT     H115514   7.028   1.219   4.714 -1.1054  1.4529 -0.2922
 3702WAT     H215515   7.147   1.287   4.727 -0.8993  1.1443 -0.5460
 3702WAT    EPW15516   7.099   1.239   4.687 -0.1858  0.1607  0.4225
 3703WAT      O15517   1.270   3.453   4.778 -0.2857 -0.0254 -0.5508
 3703WAT     H115518   1.323   3.408   4.726 -1.6151 -1.0215 -1.1036
 3703WAT     H215519   1.212   3.393   4.805 -1.9209  1.2537 -1.0406
 3703WAT    EPW15520   1.269   3.438   4.775  0.1304  0.1990 -0.7283
 3704WAT      O15521   2.402   3.495   1.253 -0.4207 -0.6036  0.0975
 3704WAT     H115522   2.373   3.440   1.193  1.2646 -1.2503 -0.1600
 3704WAT     H215523   2.330   3.540   1.275 -0.9599  0.2428 -2.9499
 3704WAT    EPW15524   2.387   3.494   1.248  0.6531  0.0916 -0.2944
 3705WAT      O15525   5.407   3.838   3.834  0.3972  0.3225  0.6539
 3705WAT     H115526   5.443   3.837   3.914  1.8347  0.9563  0.0493
 3705WAT     H215527   5.401   3.923   3.816 -0.3178  0.1889  0.2459
 3705WAT    EPW15528   5.412   3.851   3.843  0.6580 -0.6912 -0.0767
 3706WAT      O15529   7.119   6.707   1.717  0.1037  0.3335  0.6814
 3706WAT     H115530   7.045   6.749   1.737  0.2998  0.5948  0.8654
 3706WAT     H215531   7.155   6.691   1.795 -1.7956 -3.6229  1.0241
 3706WAT    EPW15532   7.114   6.711   1.732  0.1077  0.0331  1.0369
 3707WAT      O15533   0.384   2.812   1.261 -0.1910  0.4960  0.1076
 3707WAT     H115534   0.444   2.848   1.313 -0.9321  1.1804  0.5100
 3707WAT     H215535   0.333   2.766   1.315  1.4229 -2.2302 -0.5326
 3707WAT    EPW15536   0.385   2.810   1.277 -0.3114 -0.2559  0.5590
 3708WAT      O15537   4.651   4.863   7.293  0.1678  0.3471  0.7446
 3708WAT     H115538   4.704   4.811   7.247 -0.8486  0.2479 -0.3408
 3708WAT     H215539   4.623   4.920   7.235 -1.6328 -0.1474  1.0731
 3708WAT    EPW15540   4.655   4.863   7.278 -0.2730  0.0562  0.7342
 3709WAT      O15541   0.094   2.997   7.429  0.3975 -0.0360  0.2422
 3709WAT     H115542   0.048   2.994   7.355  2.2040  1.0747 -1.0173
 3709WAT     H215543   0.114   2.913   7.445  0.1155 -0.2708 -0.6227
 3709WAT    EPW15544   0.090   2.984   7.421 -0.2145  0.3317 -0.5490
 3710WAT      O15545   5.968   6.693   3.718  0.5482 -0.0501 -0.3672
 3710WAT     H115546   6.046   6.695   3.678  0.1670  0.0988 -1.1267
 3710WAT     H215547   5.913   6.674   3.653 -0.1185  0.4562  0.0470
 3710WAT    EPW15548   5.972   6.690   3.702  0.2906 -0.4239 -0.3353
 3711WAT      O15549   2.685   1.642   7.528 -0.1594 -0.2338  0.3182
 3711WAT     H115550   2.623   1.600   7.484  2.3165 -1.9829 -1.8476
 3711WAT     H215551   2.749   1.652   7.469  0.9752  3.1503  1.8554
 3711WAT    EPW15552   2.686   1.637   7.513  0.0622  0.1213  0.3795
 3712WAT      O15553   6.097   5.748   3.336 -0.3185 -0.1567 -0.2395
 3712WAT     H115554   6.179   5.757   3.307 -0.5699  0.2587 -0.8340
 3712WAT     H215555   6.092   5.805   3.402 -0.9399  1.8581 -1.9483
 3712WAT    EPW15556   6.109   5.758   3.342  0.0886  0.3657 -0.0441
 3713WAT      O15557   3.563   5.448   4.294 -0.3886  0.5906 -0.0526
 3713WAT     H115558   3.497   5.394   4.272 -0.5368  0.9209 -0.4296
 3713WAT     H215559   3.608   5.456   4.220 -0.7301  1.4936 -0.1712
 3713WAT    EPW15560   3.560   5.441   4.280  0.2961  0.7942  0.0813
 3714WAT      O15561   2.321   0.400   0.412  0.6569 -0.2226  0.0831
 3714WAT     H115562   2.389   0.413   0.466  0.9910  0.6421 -0.5323
 3714WAT     H215563   2.358   0.392   0.334  0.1104 -0.6869 -0.1339
 3714WAT    EPW15564   2.337   0.401   0.409  0.3835  0.1023 -0.2094
 3715WAT      O15565   6.816   4.900   6.134 -0.4149 -0.0539  0.7155
 3715WAT     H115566   6.778   4.827   6.106  2.1384 -1.1778 -0.0852
 3715WAT     H215567   6.786   4.961   6.080 -0.4190 -1.0436 -0.4299
 3715WAT    EPW15568   6.806   4.898   6.122  0.3002  0.3361  0.5178
 3716WAT      O15569   5.266   4.873   2.287 -0.1705 -0.2425  0.0890
 3716WAT     H115570   5.345   4.846   2.262 -0.6098  0.1785 -1.9620
 3716WAT     H215571   5.272   4.879   2.374  1.5478 -1.7388  0.1206
 3716WAT    EPW15572   5.278   4.870   2.296  0.1780 -0.2513 -0.2436
 3717WAT      O15573   3.029   3.916   7.085  0.6935 -0.2811 -0.4558
 3717WAT     H115574   3.052   3.880   7.009  0.1463  1.0317 -1.2780
 3717WAT     H215575   2.942   3.911   7.086  0.6009  1.0566 -0.6300
 3717WAT    EPW15576   3.020   3.910   7.074  0.4107 -0.2655  0.0543
 3718WAT      O15577   3.648   4.301   1.730  0.1014  0.3621  0.0625
 3718WAT     H115578   3.643   4.214   1.725  0.0864  0.2624  1.5124
 3718WAT     H215579   3.569   4.325   1.759  1.2027  0.4784  3.4284
 3718WAT    EPW15580   3.635   4.292   1.734  0.0280  0.3307  0.3202
 3719WAT      O15581   3.197   2.642   4.967  0.4619 -0.4572  0.3333
 3719WAT     H115582   3.269   2.638   4.918 -0.2692  3.2644 -1.4400
 3719WAT     H215583   3.226   2.658   5.047  1.6373 -1.0624  0.0368
 3719WAT    EPW15584   3.212   2.644   4.971 -0.2943  0.0362 -0.9543
 3720WAT      O15585   4.606   4.727   7.021 -0.4295  0.2375 -0.1549
 3720WAT     H115586   4.608   4.644   6.994  1.8888 -0.1378  0.9309
 3720WAT     H215587   4.690   4.746   7.034 -1.0774  1.9026  2.0919
 3720WAT    EPW15588   4.619   4.717   7.019 -0.0165  0.1664  0.3695
 3721WAT      O15589   1.127   1.713   1.041 -0.0156  0.1772  0.0088
 3721WAT     H115590   1.105   1.781   1.091 -1.2910 -0.1218 -0.1113
 3721WAT     H215591   1.087   1.646   1.079  2.7884 -0.9262  1.2668
 3721WAT    EPW15592   1.117   1.714   1.054 -0.3478  0.2713  0.1645
 3722WAT      O15593   0.217   3.933   4.204 -0.1363  0.5076 -0.0713
 3722WAT     H115594   0.250   3.968   4.277  0.4226  0.3697 -0.2522
 3722WAT     H215595   0.252   3.854   4.202 -2.4067 -0.6160  1.0258
 3722WAT    EPW15596   0.227   3.927   4.214 -0.1495  0.0919 -0.5303
 3723WAT      O15597   5.648   0.573   3.504 -0.3085 -0.1935 -0.1264
 3723WAT     H115598   5.666   0.543   3.424 -0.4104  1.6548 -0.8967
 3723WAT     H215599   5.708   0.635   3.516 -0.0491 -0.7097  1.4285
 3723WAT    EPW15600   5.659   0.577   3.494 -0.3369 -0.6856  0.7074
 3724WAT      O15601   4.976   5.217   4.320 -0.6574  0.6670  0.6531
 3724WAT     H115602   4.923   5.236   4.386  1.8299  2.4344  2.2803
 3724WAT     H215603   5.050   5.258   4.340  1.5230 -1.9925 -1.2632
 3724WAT    EPW15604   4.979   5.226   4.332 -0.5462 -0.1674  0.0624
 3725WAT      O15605   3.981   4.880   1.187  0.2323  0.2097  0.3213
 3725WAT     H115606   3.918   4.850   1.240 -0.7640  0.6023 -0.6094
 3725WAT     H215607   3.987   4.964   1.209 -1.5112  0.8652 -1.3689
 3725WAT    EPW15608   3.972   4.888   1.198  0.0809  0.3732  0.2246
 3726WAT      O15609   1.519   0.499   0.271  0.3252 -0.5825  0.3767
 3726WAT     H115610   1.497   0.420   0.302 -0.0266  0.7768  4.1050
 3726WAT     H215611   1.446   0.546   0.283  1.3164  0.9087  0.7789
 3726WAT    EPW15612   1.505   0.494   0.277 -0.3423 -0.0762 -0.0386
 3727WAT      O15613   1.559   1.706   5.324 -0.2522  0.9106  0.2009
 3727WAT     H115614   1.596   1.783   5.339  0.1324  0.6792  0.4788
 3727WAT     H215615   1.623   1.649   5.343 -0.4895  0.5313 -0.1245
 3727WAT    EPW15616   1.574   1.709   5.329 -0.1383  0.3942  0.4316
 3728WAT      O15617   0.212   1.255   0.562 -0.5458 -0.1321  0.3346
 3728WAT     H115618   0.192   1.326   0.515 -2.2434 -1.3134 -0.8520
 3728WAT     H215619   0.205   1.190   0.505  1.6679 -1.2469  1.2150
 3728WAT    EPW15620   0.208   1.256   0.547 -0.0755 -0.3007 -0.1412
 3729WAT      O15621   4.867   3.588   7.038  0.4303 -0.3724  0.1685
 3729WAT     H115622   4.936   3.626   7.000 -0.1395 -0.9128 -1.4686
 3729WAT     H215623   4.826   3.549   6.972 -1.3173 -0.2763  1.1408
 3729WAT    EPW15624   4.871   3.588   7.023  0.1294  0.0053  0.5781
 3730WAT      O15625   2.655   1.792   6.712 -0.0975 -0.4461  0.2958
 3730WAT     H115626   2.604   1.853   6.677  0.1161 -0.2039  0.3990
 3730WAT     H215627   2.602   1.750   6.768 -0.0726  0.1012  0.7425
 3730WAT    EPW15628   2.639   1.795   6.715  0.9019 -0.2139 -0.1810
 3731WAT      O15629   5.881   2.361   1.115 -0.3198 -0.0613 -0.1216
 3731WAT     H115630   5.942   2.420   1.094 -0.0032 -0.3294  0.0354
 3731WAT     H215631   5.910   2.288   1.078 -0.8660 -0.0545 -0.5680
 3731WAT    EPW15632   5.894   2.359   1.106 -0.1544 -0.0006 -0.3127
 3732WAT      O15633   3.078   5.418   1.180 -0.7629  0.2094 -0.2599
 3732WAT     H115634   3.137   5.381   1.127 -0.8443  0.6425 -0.6679
 3732WAT     H215635   3.097   5.503   1.175 -1.3593  0.3453 -0.3196
 3732WAT    EPW15636   3.089   5.425   1.171  0.4036 -0.4312 -0.3168
 3733WAT      O15637   4.472   0.971   3.291  0.0000  0.1530  0.4649
 3733WAT     H115638   4.441   0.934   3.219  1.0554  1.2561 -0.5917
 3733WAT     H215639   4.462   1.056   3.277  2.0815  0.4773  0.7179
 3733WAT    EPW15640   4.466   0.978   3.278  0.5745 -0.1240  0.1661
 3734WAT      O15641   7.446   2.233   6.715 -0.3069 -0.4166  0.4708
 3734WAT     H115642   7.458   2.307   6.759 -0.2308 -0.4218  0.4590
 3734WAT     H215643   7.390   2.256   6.652 -0.8583 -0.5412  0.9072
 3734WAT    EPW15644   7.440   2.248   6.712 -0.4701 -0.4895 -0.1077
 3735WAT      O15645   5.456   2.040   5.203 -0.2044 -0.1978 -0.1084
 3735WAT     H115646   5.398   1.975   5.212 -1.0880  0.4110 -1.1435
 3735WAT     H215647   5.507   2.014   5.138 -0.5010  0.0924 -0.4620
 3735WAT    EPW15648   5.455   2.027   5.195 -0.2918 -0.0069  0.1213
 3736WAT      O15649   7.619   0.268   4.326 -0.1720  0.3144 -0.5675
 3736WAT     H115650   7.598   0.260   4.242 -2.4361 -2.2562  0.0639
 3736WAT     H215651   7.581   0.342   4.350  0.9954  1.3863 -1.8713
 3736WAT    EPW15652   7.610   0.278   4.317 -0.0377  0.5363 -0.0074
 3737WAT      O15653   5.461   5.037   2.013 -0.4544 -0.1707 -0.0018
 3737WAT     H115654   5.444   4.952   2.005  0.4299 -0.4158  0.6649
 3737WAT     H215655   5.382   5.073   2.024 -0.6339 -1.3335  3.5593
 3737WAT    EPW15656   5.446   5.030   2.013 -0.7111 -0.6692 -0.4601
 3738WAT      O15657   7.054   2.784   6.403  0.0142 -0.6227  0.3792
 3738WAT     H115658   7.105   2.854   6.397 -0.8549  0.2340  2.3879
 3738WAT     H215659   7.110   2.720   6.423  0.5894 -0.1848  0.2034
 3738WAT    EPW15660   7.070   2.785   6.405  1.0501 -0.3332 -0.4436
 3739WAT      O15661   6.950   4.015   5.466  0.6056 -0.0127 -0.5825
 3739WAT     H115662   6.883   3.964   5.445  0.3700  1.2782 -3.4842
 3739WAT     H215663   6.978   3.983   5.542 -0.5337 -3.3390 -1.4225
 3739WAT    EPW15664   6.944   4.003   5.474 -0.1243  0.7946  0.0118
 3740WAT      O15665   2.546   4.523   4.905 -0.0436  0.0010  0.2188
 3740WAT     H115666   2.621   4.484   4.886 -0.6145 -1.1180  0.1879
 3740WAT     H215667   2.499   4.461   4.944 -1.3289  0.3390 -0.6910
 3740WAT    EPW15668   2.550   4.508   4.908 -0.2594  0.3876 -0.2561
 3741WAT      O15669   3.400   6.914   2.487  0.0177 -0.0477 -0.0873
 3741WAT     H115670   3.470   6.902   2.537 -0.4182 -1.8081  0.1502
 3741WAT     H215671   3.381   6.999   2.498  0.9560 -0.0014  1.3596
 3741WAT    EPW15672   3.407   6.925   2.496  0.4777  0.8421  0.1467
 3742WAT      O15673   5.535   6.544   6.137 -0.7114 -0.3869  0.0076
 3742WAT     H115674   5.458   6.579   6.161 -1.2531 -0.7092 -1.1766
 3742WAT     H215675   5.541   6.472   6.185 -0.6343  0.1782  0.8722
 3742WAT    EPW15676   5.525   6.539   6.148  0.1035  0.0920 -0.8282
 3743WAT      O15677   3.765   1.293   5.579 -0.7065  0.0254 -0.7059
 3743WAT     H115678   3.712   1.356   5.550  0.8120  1.7635  0.0379
 3743WAT     H215679   3.720   1.255   5.643 -0.6665  2.3007  0.7742
 3743WAT    EPW15680   3.750   1.297   5.584  0.7513 -0.1101  0.2208
 3744WAT      O15681   0.587   4.930   3.368  0.0431 -0.2236  0.1529
 3744WAT     H115682   0.542   4.968   3.433  0.1762  0.2751 -0.0459
 3744WAT     H215683   0.590   4.991   3.306  0.2162 -0.5772 -0.1906
 3744WAT    EPW15684   0.581   4.944   3.369 -0.0093 -0.3350 -0.1363
 3745WAT      O15685   6.156   3.412   5.428 -0.1971  0.1041  0.7686
 3745WAT     H115686   6.076   3.393   5.399 -0.5721 -0.3514  2.0260
 3745WAT     H215687   6.159   3.499   5.424 -0.7707  0.1253  0.7132
 3745WAT    EPW15688   6.144   3.422   5.423 -0.7826 -1.0138 -0.5890
 3746WAT      O15689   6.552   2.464   1.524  0.6142  0.0343 -0.5740
 3746WAT     H115690   6.589   2.533   1.563  0.5040 -1.0314  1.5698
 3746WAT     H215691   6.491   2.439   1.580  1.1419 -2.2399 -0.9040
 3746WAT    EPW15692   6.549   2.470   1.538 -0.7227  0.0514  0.0287
 3747WAT      O15693   2.668   4.168   3.069  0.1010  0.9232 -0.6035
 3747WAT     H115694   2.753   4.181   3.082  0.5178  0.6877 -2.6946
 3747WAT     H215695   2.631   4.239   3.104  1.0568  0.7059  0.9453
 3747WAT    EPW15696   2.675   4.180   3.076 -0.3207 -0.1372 -0.1076
 3748WAT      O15697   7.567   0.847   2.021 -0.7485  0.4024  0.2095
 3748WAT     H115698   7.639   0.894   2.003 -1.2275  1.1088  0.1119
 3748WAT     H215699   7.516   0.861   1.952 -0.8408 -0.4024  0.1042
 3748WAT    EPW15700   7.570   0.856   2.008 -0.2418 -0.2284 -0.8190
 3749WAT      O15701   3.159   0.865   2.491  0.1528  0.1553  0.4718
 3749WAT     H115702   3.245   0.855   2.482  0.0610  0.0624 -0.4503
 3749WAT     H215703   3.128   0.847   2.411 -0.7635 -0.2586  0.9030
 3749WAT    EPW15704   3.167   0.861   2.478 -0.2195 -0.0199  0.2699
 3750WAT      O15705   5.697   4.377   3.575  0.1703  0.4837 -0.3334
 3750WAT     H115706   5.675   4.298   3.544 -0.2518  0.1395  0.7942
 3750WAT     H215707   5.763   4.359   3.629  0.3123  0.9507 -0.3533
 3750WAT    EPW15708   5.703   4.363   3.579 -0.1688  0.3011  0.7309
 3751WAT      O15709   1.865   2.903   1.851 -0.1103  0.7233 -0.1733
 3751WAT     H115710   1.934   2.954   1.834  0.4746  0.0120  0.0217
 3751WAT     H215711   1.839   2.929   1.930 -1.0631  2.0765 -0.8980
 3751WAT    EPW15712   1.872   2.914   1.860 -0.1634 -0.1836  0.1457
 3752WAT      O15713   3.731   5.764   2.359 -0.3578  0.5530 -0.1716
 3752WAT     H115714   3.712   5.705   2.298  0.1449  0.7799 -0.5561
 3752WAT     H215715   3.654   5.799   2.379 -0.6332 -0.1132 -0.0599
 3752WAT    EPW15716   3.717   5.761   2.353 -0.3387 -0.6361 -0.6856
 3753WAT      O15717   2.756   3.432   2.271  0.2190 -0.3900  0.3942
 3753WAT     H115718   2.763   3.519   2.264 -1.4436 -0.2187  0.2774
 3753WAT     H215719   2.803   3.402   2.204  0.9924  0.3981  0.5639
 3753WAT    EPW15720   2.764   3.440   2.260  0.3698 -0.1366  0.1773
 3754WAT      O15721   2.674   6.278   0.919  0.3788 -0.5060  0.1205
 3754WAT     H115722   2.700   6.342   0.866  1.1989 -0.7858  0.1668
 3754WAT     H215723   2.747   6.233   0.933  0.1737 -0.4537  1.4573
 3754WAT    EPW15724   2.688   6.281   0.913 -0.4831 -0.3814 -0.1233
 3755WAT      O15725   6.054   7.570   1.217 -0.4509 -0.2869 -0.1779
 3755WAT     H115726   5.981   7.591   1.259 -0.7482 -2.8261  0.7978
 3755WAT     H215727   6.115   7.620   1.255 -1.1474 -0.6979  1.5917
 3755WAT    EPW15728   6.052   7.580   1.229  0.3497 -0.0344  0.1778
 3756WAT      O15729   5.309   7.118   1.692  0.2359 -0.2863 -0.0806
 3756WAT     H115730   5.289   7.040   1.725  0.2701 -1.4174 -2.4697
 3756WAT     H215731   5.235   7.164   1.701 -0.5232 -1.3597 -0.6260
 3756WAT    EPW15732   5.295   7.113   1.698 -0.7279  0.5046  0.2123
 3757WAT      O15733   4.099   3.392   5.390  0.4020  0.1984  0.3152
 3757WAT     H115734   4.094   3.478   5.376  2.8006  0.1871 -1.2071
 3757WAT     H215735   4.074   3.357   5.314  0.1540 -0.4251  0.6757
 3757WAT    EPW15736   4.095   3.400   5.377  0.7103  0.2757  0.1485
 3758WAT      O15737   5.773   1.188   4.802 -0.3324 -0.4548 -0.1431
 3758WAT     H115738   5.860   1.186   4.807 -0.2684 -0.7949 -1.1285
 3758WAT     H215739   5.748   1.115   4.843 -0.1341 -0.5164 -0.1304
 3758WAT    EPW15740   5.782   1.177   4.808  1.1807 -0.1316 -0.1009
 3759WAT      O15741   5.121   5.550   4.861 -0.5697  0.0639  0.3893
 3759WAT     H115742   5.190   5.573   4.909 -1.1431  1.5799  0.5745
 3759WAT     H215743   5.143   5.575   4.780  0.5600 -2.8514 -0.3207
 3759WAT    EPW15744   5.134   5.557   4.856 -0.4673  0.0431 -0.1782
 3760WAT      O15745   0.683   0.400   2.333 -0.9387 -0.0281  0.5395
 3760WAT     H115746   0.727   0.384   2.407  0.9548  1.8378 -0.0930
 3760WAT     H215747   0.695   0.485   2.319  1.0019 -0.6705 -3.1826
 3760WAT    EPW15748   0.691   0.410   2.342 -0.2165 -0.1106 -0.1507
 3761WAT      O15749   0.592   2.724   3.986  0.8124  0.3184 -1.0603
 3761WAT     H115750   0.519   2.736   4.032  0.0300 -0.5259 -2.0337
 3761WAT     H215751   0.655   2.737   4.044 -0.1206 -1.2049  0.3931
 3761WAT    EPW15752   0.590   2.728   4.001 -0.2640  0.2025  0.1099
 3762WAT      O15753   3.342   1.299   3.049 -0.5956  0.3158  0.1002
 3762WAT     H115754   3.263   1.263   3.054 -0.2592 -0.9678 -2.2745
 3762WAT     H215755   3.378   1.260   2.979  2.5379  0.0830  1.6661
 3762WAT    EPW15756   3.336   1.288   3.039  0.3283  0.4319 -0.0054
 3763WAT      O15757   3.426   2.703   6.479  0.0001  0.2855  0.1306
 3763WAT     H115758   3.456   2.753   6.544  2.3997  0.4259 -0.9657
 3763WAT     H215759   3.498   2.687   6.432 -0.8649 -3.2541 -0.2240
 3763WAT    EPW15760   3.441   2.708   6.482  0.0772 -0.1999 -0.3848
 3764WAT      O15761   4.253   3.756   3.721 -0.1006 -0.6225  0.7051
 3764WAT     H115762   4.323   3.804   3.742 -0.0011  0.0242 -0.9976
 3764WAT     H215763   4.187   3.812   3.728 -0.0354 -0.3217 -0.8627
 3764WAT    EPW15764   4.254   3.771   3.725  0.1584 -1.0455 -0.1221
 3765WAT      O15765   2.711   4.120   2.745 -0.8359 -0.3360  0.4015
 3765WAT     H115766   2.690   4.089   2.825 -1.0108  0.2019  0.5649
 3765WAT     H215767   2.797   4.106   2.740 -0.2827  1.9942  1.7711
 3765WAT    EPW15768   2.721   4.113   2.756  0.1214  0.5445  0.4084
 3766WAT      O15769   5.499   0.296   5.133 -0.1319 -0.1048  0.3058
 3766WAT     H115770   5.523   0.250   5.063 -0.9620 -2.0489  1.2131
 3766WAT     H215771   5.572   0.301   5.181  0.1860  0.3329 -0.2161
 3766WAT    EPW15772   5.513   0.290   5.130 -0.5924  0.4869 -0.0313
 3767WAT      O15773   7.590   3.455   5.613  0.0727  0.5930 -0.3259
 3767WAT     H115774   7.551   3.377   5.617 -0.2618  0.7894  0.3263
 3767WAT     H215775   7.528   3.507   5.580 -0.3192  0.9525  0.9187
 3767WAT    EPW15776   7.575   3.451   5.609 -0.3580  0.1273  0.0709
 3768WAT      O15777   1.297   0.135   0.740  0.6318  0.4036 -0.7431
 3768WAT     H115778   1.324   0.086   0.674  1.0574 -0.7711  0.2636
 3768WAT     H215779   1.211   0.119   0.744  0.9945 -1.5863  0.5588
 3768WAT    EPW15780   1.288   0.125   0.731  0.0827  0.0354  0.0131
 3769WAT      O15781   7.509   7.442   3.271  0.2155  0.3440 -0.1643
 3769WAT     H115782   7.586   7.462   3.235  0.2788 -1.5656 -1.2598
 3769WAT     H215783   7.459   7.421   3.203 -1.0071  0.6853  0.5912
 3769WAT    EPW15784   7.513   7.442   3.256  0.5009 -0.1063 -0.3744
 3770WAT      O15785   4.110   1.958   0.666  0.2594 -0.3257  0.2600
 3770WAT     H115786   4.196   1.962   0.676  0.5062  1.6443 -1.8228
 3770WAT     H215787   4.098   1.894   0.608  0.5524  0.5406 -0.8044
 3770WAT    EPW15788   4.121   1.949   0.659 -0.2845 -0.2981  0.2919
 3771WAT      O15789   7.479   3.838   2.171  0.3922 -0.0786 -0.2703
 3771WAT     H115790   7.422   3.900   2.149  1.3870  1.0632  0.2464
 3771WAT     H215791   7.512   3.813   2.094 -0.9444 -0.9278 -0.5922
 3771WAT    EPW15792   7.476   3.844   2.156  0.3053  0.3935  0.2962
 3772WAT      O15793   5.939   4.882   6.540  0.2131 -0.1441  0.3205
 3772WAT     H115794   5.967   4.962   6.519  1.7709 -0.4098  1.2345
 3772WAT     H215795   5.935   4.841   6.463 -1.1144  0.9152 -0.2306
 3772WAT    EPW15796   5.942   4.888   6.525 -0.2804  0.2916  0.4006
 3773WAT      O15797   0.783   2.802   4.436  0.5068 -0.1171  0.3236
 3773WAT     H115798   0.712   2.753   4.446 -0.1536  0.7866  0.1654
 3773WAT     H215799   0.765   2.875   4.480  2.2437 -0.7169  2.2154
 3773WAT    EPW15800   0.770   2.806   4.444  0.5125  0.2643  0.4646
 3774WAT      O15801   5.740   0.476   5.736  0.6183 -0.4053 -0.1433
 3774WAT     H115802   5.751   0.520   5.810  1.0597 -0.6584 -0.0511
 3774WAT     H215803   5.681   0.522   5.692 -0.4427 -0.8195  0.8118
 3774WAT    EPW15804   5.733   0.489   5.740  0.1523  0.5922  0.2551
 3775WAT      O15805   0.237   2.139   2.701 -0.2216  0.4034 -0.1078
 3775WAT     H115806   0.179   2.133   2.637  0.2893  0.1698 -0.5557
 3775WAT     H215807   0.207   2.082   2.761 -0.1623 -0.1182 -0.5688
 3775WAT    EPW15808   0.224   2.130   2.701  0.4274 -0.2652  0.5621
 3776WAT      O15809   1.537   3.246   0.307 -0.6412  0.2936 -0.4269
 3776WAT     H115810   1.480   3.180   0.310  0.3332 -0.5407  0.6939
 3776WAT     H215811   1.573   3.246   0.386  0.2372  1.4208 -0.7977
 3776WAT    EPW15812   1.534   3.236   0.319  0.0691 -0.8794  0.2151
 3777WAT      O15813   0.049   2.524   7.444  0.0859  0.1140  0.0068
 3777WAT     H115814   0.103   2.591   7.460 -0.0694 -0.4641  4.3282
 3777WAT     H215815  -0.019   2.560   7.405  0.6248  2.2576  0.9026
 3777WAT    EPW15816   0.047   2.539   7.441 -0.2737  0.5416  0.3217
 3778WAT      O15817   5.787   3.948   6.925  0.3863  0.4151 -0.5918
 3778WAT     H115818   5.724   3.895   6.951  0.1278  1.3880  0.8856
 3778WAT     H215819   5.859   3.899   6.931  0.3104  0.4501  1.7854
 3778WAT    EPW15820   5.789   3.933   6.930 -0.3469  0.1607  0.1635
 3779WAT      O15821   2.182   0.000   6.848 -0.4394 -0.2767 -0.2670
 3779WAT     H115822   2.248  -0.030   6.799 -0.1180 -1.6925  0.9550
 3779WAT     H215823   2.199   0.085   6.856  0.5872 -0.4031 -0.9601
 3779WAT    EPW15824   2.195   0.008   6.842 -0.0743  0.1504  0.1683
 3780WAT      O15825   5.694   5.785   0.636 -0.6485 -0.6414  0.0393
 3780WAT     H115826   5.719   5.711   0.598  0.6223 -0.4687  0.5077
 3780WAT     H215827   5.744   5.790   0.707 -0.9005  0.5248  0.1577
 3780WAT    EPW15828   5.705   5.775   0.641  0.2192  0.3210 -0.0468
 3781WAT      O15829   2.214   2.997   7.322 -0.2565 -0.0764 -0.2295
 3781WAT     H115830   2.158   2.981   7.257 -0.6276 -0.5266  0.1884
 3781WAT     H215831   2.231   2.918   7.353  1.7110 -0.0926 -1.2295
 3781WAT    EPW15832   2.208   2.983   7.317  0.3210  0.2866  0.1400
 3782WAT      O15833   0.513   5.534   3.226  0.0270 -0.2568  0.5950
 3782WAT     H115834   0.443   5.586   3.220  0.9538  1.0559  0.6159
 3782WAT     H215835   0.502   5.493   3.302  0.2902  1.5408  1.6662
 3782WAT    EPW15836   0.501   5.536   3.236 -0.3244  0.3975  0.0499
 3783WAT      O15837   7.254   7.201   6.148 -0.2154 -0.1429  0.5604
 3783WAT     H115838   7.176   7.184   6.183 -0.4622  2.1047  1.3114
 3783WAT     H215839   7.270   7.283   6.175  2.9045 -0.8841  1.3268
 3783WAT    EPW15840   7.245   7.211   6.157  1.0828 -0.0885  0.3772
 3784WAT      O15841   7.470   3.161   4.000 -0.3317  0.4855  0.1490
 3784WAT     H115842   7.485   3.126   4.079  0.5746 -1.2709 -0.7384
 3784WAT     H215843   7.538   3.214   3.988 -0.3692  0.6083  0.4664
 3784WAT    EPW15844   7.482   3.163   4.010 -0.2785  0.4857 -0.3726
 3785WAT      O15845   6.942   6.654   5.889 -0.2253  0.2187  0.0339
 3785WAT     H115846   6.879   6.714   5.887 -0.9572 -0.5677 -1.5679
 3785WAT     H215847   6.905   6.587   5.931 -0.2011  0.0315 -0.2441
 3785WAT    EPW15848   6.927   6.653   5.895  0.0321 -0.2205 -0.1106
 3786WAT      O15849   3.690   0.076   4.844  0.1816  0.0237  0.5354
 3786WAT     H115850   3.634   0.009   4.839  2.0162 -1.5887  0.2309
 3786WAT     H215851   3.725   0.080   4.764  0.3964  1.0853  0.6679
 3786WAT    EPW15852   3.687   0.067   4.831  0.3447  0.2449 -0.1911
 3787WAT      O15853   6.110   6.484   7.318  0.2546 -0.5412 -0.6992
 3787WAT     H115854   6.051   6.421   7.330  0.1970 -0.3043  0.3287
 3787WAT     H215855   6.185   6.440   7.315  0.4788 -0.5671  2.1827
 3787WAT    EPW15856   6.112   6.468   7.319 -0.3153 -0.0277  0.2266
 3788WAT      O15857   4.862   4.983   4.444 -0.4453 -0.3207 -0.0369
 3788WAT     H115858   4.916   5.029   4.393  1.7376 -1.4969  1.0655
 3788WAT     H215859   4.812   4.940   4.387 -1.1944  1.7849 -1.0862
 3788WAT    EPW15860   4.863   4.983   4.428  0.2061 -0.0252 -0.0819
 3789WAT      O15861   5.823   4.511   4.218 -0.6671  0.1226  0.0101
 3789WAT     H115862   5.759   4.459   4.190 -0.1230 -0.9031  0.6058
 3789WAT     H215863   5.781   4.576   4.257 -1.3631 -0.2576 -0.0867
 3789WAT    EPW15864   5.807   4.513   4.220 -0.2742  0.1185  0.2091
 3790WAT      O15865   0.834   6.417   3.502  0.5800  0.1963  0.3337
 3790WAT     H115866   0.751   6.392   3.501  0.9799 -1.1675 -0.7282
 3790WAT     H215867   0.848   6.446   3.421  1.3096 -0.1931  0.3130
 3790WAT    EPW15868   0.824   6.418   3.490 -0.4055  0.0685 -0.4444
 3791WAT      O15869   1.021   4.672   7.586 -0.1747 -0.5829 -0.5677
 3791WAT     H115870   1.048   4.641   7.663 -0.9258  0.9189  0.3411
 3791WAT     H215871   0.945   4.632   7.573 -0.9707  0.5450  0.4319
 3791WAT    EPW15872   1.014   4.662   7.595  0.0774  0.1457 -0.1984
 3792WAT      O15873   6.090   7.427   5.615 -0.6651 -0.8220  0.0568
 3792WAT     H115874   6.083   7.514   5.612 -1.1764 -0.8071  1.1793
 3792WAT     H215875   6.153   7.410   5.557  0.5588  0.4361  0.9592
 3792WAT    EPW15876   6.098   7.438   5.606 -0.9964  0.0191  0.2665
 3793WAT      O15877   0.180   3.633   7.263  0.4577 -0.2536  0.3836
 3793WAT     H115878   0.166   3.667   7.343  0.1626  2.1767 -0.6058
 3793WAT     H215879   0.257   3.666   7.240 -1.4322  3.0179 -2.0683
 3793WAT    EPW15880   0.189   3.643   7.271 -0.3662 -0.0775  0.0273
 3794WAT      O15881   2.905   7.557   2.278 -0.0791 -0.1942 -0.3739
 3794WAT     H115882   2.855   7.626   2.296  0.8483  0.5737 -0.7074
 3794WAT     H215883   2.882   7.536   2.196 -0.4749 -0.4015 -0.2168
 3794WAT    EPW15884   2.894   7.564   2.268  0.3909 -0.3005  0.0837
 3795WAT      O15885   4.266   4.863   5.259 -0.8374 -0.7830 -0.5850
 3795WAT     H115886   4.326   4.800   5.264  0.4203  0.4041 -0.3207
 3795WAT     H215887   4.304   4.924   5.211 -0.9708  0.8920  1.2999
 3795WAT    EPW15888   4.280   4.863   5.253  0.4695 -0.1842  0.2927
 3796WAT      O15889   4.712   5.339   5.467  0.1025  0.2307 -0.2193
 3796WAT     H115890   4.787   5.294   5.469 -0.3214 -0.4734  0.1818
 3796WAT     H215891   4.737   5.421   5.484  0.8771  0.1473 -0.8702
 3796WAT    EPW15892   4.727   5.345   5.470  0.3068  0.1381  0.1132
 3797WAT      O15893   5.688   4.500   5.491 -0.8029  0.2622  0.1281
 3797WAT     H115894   5.685   4.421   5.527 -1.1585  0.0295 -0.3871
 3797WAT     H215895   5.619   4.501   5.437 -0.5962  0.7875 -0.1434
 3797WAT    EPW15896   5.677   4.489   5.488  0.2089  0.1948  1.0912
 3798WAT      O15897   7.107   7.531   6.124 -0.5828 -0.0229  0.0621
 3798WAT     H115898   7.082   7.531   6.040 -1.1779  2.9893  0.0967
 3798WAT     H215899   7.033   7.553   6.166 -0.8675 -3.5621  1.7330
 3798WAT    EPW15900   7.092   7.534   6.118 -0.5542 -1.1146 -0.1975
 3799WAT      O15901   1.850   0.643   4.384  0.6794  0.3357 -0.0518
 3799WAT     H115902   1.876   0.687   4.314  1.5403 -0.3665 -0.1917
 3799WAT     H215903   1.847   0.560   4.356 -2.6604  0.4103 -0.3410
 3799WAT    EPW15904   1.853   0.637   4.369  0.1197 -0.0542  0.3303
 3800WAT      O15905   0.205   2.887   5.160  0.4987 -0.4462 -0.7432
 3800WAT     H115906   0.207   2.866   5.245  1.8193  0.6802 -0.4527
 3800WAT     H215907   0.284   2.924   5.146 -0.6201  1.7786 -1.7890
 3800WAT    EPW15908   0.217   2.890   5.171  0.0235  0.2204  0.1463
 3801WAT      O15909   5.173   2.749   5.340  0.1621 -0.1059 -0.6055
 3801WAT     H115910   5.137   2.819   5.377 -0.5996 -0.2526 -1.0492
 3801WAT     H215911   5.124   2.683   5.369  0.3838 -0.3626 -0.8102
 3801WAT    EPW15912   5.160   2.750   5.350 -0.3826  0.2021 -0.3387
 3802WAT      O15913   6.760   7.082   7.449  0.3500 -0.3131 -0.6907
 3802WAT     H115914   6.789   7.127   7.518  2.5265 -4.2238  1.2914
 3802WAT     H215915   6.677   7.106   7.442  0.5489  1.6467  2.1420
 3802WAT    EPW15916   6.752   7.092   7.458 -0.4768  0.1557  0.1131
 3803WAT      O15917   7.538   6.736   2.406 -0.0130 -0.2344 -0.0854
 3803WAT     H115918   7.537   6.708   2.323  0.1622 -0.7119  0.0725
 3803WAT     H215919   7.487   6.678   2.448  1.5939 -1.2593  0.5382
 3803WAT    EPW15920   7.530   6.723   2.400 -0.1553 -0.8394 -0.2782
 3804WAT      O15921   6.753   2.937   1.038  0.2535 -0.1753  0.2480
 3804WAT     H115922   6.707   2.866   1.020 -0.3031  0.1102  0.5268
 3804WAT     H215923   6.812   2.940   0.973  0.2093 -0.8155  0.1718
 3804WAT    EPW15924   6.755   2.927   1.026 -0.0573  0.2847  0.1025
 3805WAT      O15925   4.580   2.730   3.651 -0.1175 -0.5988 -0.3215
 3805WAT     H115926   4.547   2.661   3.609  0.5224 -0.5862 -0.8573
 3805WAT     H215927   4.599   2.786   3.587  0.6701 -0.4854  0.0001
 3805WAT    EPW15928   4.578   2.728   3.635 -0.1442 -0.0578 -0.2292
 3806WAT      O15929   5.293   0.105   5.727  0.0392  0.6839  0.6260
 3806WAT     H115930   5.244   0.054   5.778  0.0922  0.7661  0.7590
 3806WAT     H215931   5.372   0.100   5.762  0.3619 -0.2555 -0.1827
 3806WAT    EPW15932   5.297   0.097   5.740 -0.2135 -0.2657 -0.0676
 3807WAT      O15933   4.397   1.574   1.310 -0.2699 -0.1571 -1.0920
 3807WAT     H115934   4.336   1.607   1.364 -0.2132 -0.8046 -0.6152
 3807WAT     H215935   4.472   1.589   1.353 -0.3578 -2.3668 -0.0370
 3807WAT    EPW15936   4.399   1.581   1.324  0.0061 -0.1733 -0.0065
 3808WAT      O15937   5.557   4.921   0.849  0.2339 -0.8782 -0.1958
 3808WAT     H115938   5.528   4.958   0.923 -1.2125 -0.8049 -0.7789
 3808WAT     H215939   5.497   4.860   0.832 -0.4549  0.2729 -2.2384
 3808WAT    EPW15940   5.544   4.918   0.858 -0.0181 -0.3639  0.1952
 3809WAT      O15941   4.403   5.680   5.426 -0.4987 -0.0663  0.1044
 3809WAT     H115942   4.384   5.720   5.502 -1.4759  0.9797 -0.6399
 3809WAT     H215943   4.397   5.595   5.445 -0.7715  0.1786  1.1955
 3809WAT    EPW15944   4.399   5.674   5.440 -0.2293  0.0003 -0.1221
 3810WAT      O15945   6.760   7.271   2.527 -0.1541  0.5836  0.1733
 3810WAT     H115946   6.757   7.279   2.440  3.1120  0.0417 -0.1022
 3810WAT     H215947   6.827   7.322   2.550  1.0941 -1.6846  1.9648
 3810WAT    EPW15948   6.770   7.280   2.517  0.4605 -0.0869 -0.4491
 3811WAT      O15949   1.912   4.338   6.194 -0.2548  0.3987  1.1351
 3811WAT     H115950   1.842   4.343   6.246  1.0339 -1.5341  3.2213
 3811WAT     H215951   1.964   4.402   6.222  1.0111 -1.4408  3.3341
 3811WAT    EPW15952   1.909   4.348   6.206  0.3394 -0.1291  0.0908
 3812WAT      O15953   2.322   7.320   0.190 -0.0682 -0.1949 -0.2225
 3812WAT     H115954   2.382   7.375   0.220  0.0951 -0.0531 -0.7997
 3812WAT     H215955   2.314   7.342   0.106  0.1614 -1.1932 -0.5204
 3812WAT    EPW15956   2.330   7.331   0.182  0.3946  0.3148 -0.2539
 3813WAT      O15957   3.386   4.312   7.422  0.7217 -0.2326 -0.7881
 3813WAT     H115958   3.445   4.295   7.360 -0.5867  0.5911 -2.3389
 3813WAT     H215959   3.387   4.399   7.428 -0.8325 -0.1272 -1.4416
 3813WAT    EPW15960   3.395   4.322   7.413 -0.4049 -0.5359  0.0656
 3814WAT      O15961   6.298   5.766   6.152 -0.3574 -0.2122  0.0133
 3814WAT     H115962   6.243   5.819   6.109  0.8970  0.6643 -0.5745
 3814WAT     H215963   6.357   5.744   6.091 -0.1584 -1.2897  0.5796
 3814WAT    EPW15964   6.299   5.771   6.137 -0.5460  0.8259  0.2509
 3815WAT      O15965   4.951   4.794   3.494 -0.1424  0.7368 -0.6896
 3815WAT     H115966   5.009   4.755   3.546 -1.1857  1.4286  1.0582
 3815WAT     H215967   5.001   4.844   3.442  1.0339 -1.0974 -1.4622
 3815WAT    EPW15968   4.967   4.796   3.494  0.1026  0.6219 -0.5724
 3816WAT      O15969   6.079   2.599   1.302  0.5051  0.3100  0.4160
 3816WAT     H115970   6.105   2.529   1.348  2.0260  1.5682  1.5891
 3816WAT     H215971   6.022   2.638   1.356  0.2675  0.4192  0.0920
 3816WAT    EPW15972   6.074   2.594   1.317 -0.4597  0.3605 -0.1459
 3817WAT      O15973   1.962   1.464   1.266  0.0460 -0.0366 -0.4232
 3817WAT     H115974   2.024   1.462   1.205  0.6426  1.1849  0.1106
 3817WAT     H215975   1.915   1.535   1.245 -0.1883 -0.0320  0.1053
 3817WAT    EPW15976   1.964   1.474   1.254 -0.2385 -0.0784 -0.2339
 3818WAT      O15977   6.991   2.848   5.177 -0.0987 -0.6449 -0.7834
 3818WAT     H115978   6.966   2.823   5.256  0.7280 -3.5326 -1.3268
 3818WAT     H215979   6.926   2.900   5.151 -1.8726 -2.0230  0.6553
 3818WAT    EPW15980   6.978   2.852   5.185  0.2552 -0.0781  0.1391
 3819WAT      O15981   0.193   1.773   2.472  0.2991  0.0289 -0.1667
 3819WAT     H115982   0.198   1.815   2.548 -0.9902  0.0696 -0.0794
 3819WAT     H215983   0.215   1.833   2.413 -0.6778  0.5915  0.0268
 3819WAT    EPW15984   0.197   1.788   2.474 -0.1056 -0.1699 -0.0176
 3820WAT      O15985   3.475   1.786   7.337 -0.3427  0.3317 -0.2671
 3820WAT     H115986   3.501   1.715   7.380  0.7834  0.8348 -0.0615
 3820WAT     H215987   3.401   1.762   7.298  0.2503 -1.0760 -0.5621
 3820WAT    EPW15988   3.468   1.772   7.338  0.1037  0.5057  0.1051
 3821WAT      O15989   3.756   1.786   3.811 -0.1696 -0.0639 -0.2814
 3821WAT     H115990   3.811   1.817   3.751 -0.7640  0.7320 -0.4319
 3821WAT     H215991   3.679   1.821   3.788 -0.4923 -0.1108  0.6950
 3821WAT    EPW15992   3.753   1.795   3.799  0.1637 -0.1598 -0.4964
 3822WAT      O15993   3.454   4.917   1.779  0.6995  0.0063  0.3405
 3822WAT     H115994   3.486   4.986   1.736  1.8862 -0.3346  0.6315
 3822WAT     H215995   3.511   4.853   1.760  0.1413 -0.6575  0.8372
 3822WAT    EPW15996   3.467   4.917   1.770  0.2891 -0.1489 -0.6822
 3823WAT      O15997   5.136   7.504   2.921 -0.0713 -0.3363  0.1435
 3823WAT     H115998   5.101   7.523   2.999  0.9603 -0.0154  0.5556
 3823WAT     H215999   5.130   7.579   2.877 -0.5628 -0.4891 -0.0518
 3823WAT    EPW16000   5.130   7.518   2.926  0.2656 -0.3089  0.6678
 3824WAT      O16001   1.938   5.401   3.253 -0.2101  0.1243  0.2112
 3824WAT     H116002   2.004   5.458   3.246  0.5358 -0.9129 -3.4661
 3824WAT     H216003   1.880   5.442   3.303  0.4408  3.9994 -1.8360
 3824WAT    EPW16004   1.939   5.415   3.259 -0.0205  0.1759 -0.6699
 3825WAT      O16005   1.678   3.394   5.921  0.2322  0.4003 -0.3522
 3825WAT     H116006   1.712   3.473   5.935  0.2491  0.6390 -1.5679
 3825WAT     H216007   1.676   3.358   6.000  0.4536  1.5248  0.1908
 3825WAT    EPW16008   1.683   3.400   5.935 -0.0458  0.1890 -0.3642
 3826WAT      O16009   3.652   4.015   1.707  0.7144  0.1056  0.2600
 3826WAT     H116010   3.726   4.020   1.752  1.9657 -0.2389 -1.6663
 3826WAT     H216011   3.644   3.930   1.689  0.9796  0.3928 -1.2972
 3826WAT    EPW16012   3.661   4.003   1.711 -0.3678  0.5133  0.1752
 3827WAT      O16013   0.447   5.785   0.972 -0.2370  0.4940  0.1767
 3827WAT     H116014   0.459   5.735   1.043  0.5719  1.1214  0.5063
 3827WAT     H216015   0.510   5.759   0.918 -0.9702 -0.1121 -0.3978
 3827WAT    EPW16016   0.458   5.774   0.975 -0.3878  0.1352 -0.0926
 3828WAT      O16017   1.447   1.590   0.771 -0.5059  0.0499  0.3320
 3828WAT     H116018   1.362   1.586   0.786 -0.4209 -1.3311  0.5901
 3828WAT     H216019   1.453   1.577   0.685 -0.5666  0.5237  0.2526
 3828WAT    EPW16020   1.436   1.587   0.760 -0.2590  0.2152  0.5739
 3829WAT      O16021   5.240   1.510   1.397 -0.0635 -0.3577  0.2163
 3829WAT     H116022   5.176   1.563   1.424 -0.2882  1.2832 -3.0225
 3829WAT     H216023   5.204   1.431   1.402 -2.8731  0.5414 -2.2239
 3829WAT    EPW16024   5.225   1.506   1.402 -0.3077  0.5656 -0.0606
 3830WAT      O16025   2.090   2.232   5.540 -0.1790  0.8283  0.5436
 3830WAT     H116026   2.151   2.243   5.601 -1.0896 -0.1917  1.6801
 3830WAT     H216027   2.117   2.160   5.497 -0.3631  0.6203  0.7758
 3830WAT    EPW16028   2.103   2.223   5.542 -0.4443  0.6144  0.0339
 3831WAT      O16029   3.676   4.743   1.709  0.0764 -0.0564 -0.1222
 3831WAT     H116030   3.691   4.683   1.770  0.7199 -1.6418 -1.7303
 3831WAT     H216031   3.747   4.794   1.712 -0.4211  0.5862  1.1853
 3831WAT    EPW16032   3.689   4.741   1.718 -0.4215 -0.3235 -0.5369
 3832WAT      O16033   3.026   2.757   7.227  0.3394 -0.3128 -0.6248
 3832WAT     H116034   3.051   2.770   7.310 -0.8581 -2.3413  0.1263
 3832WAT     H216035   3.021   2.670   7.221 -3.7109 -0.1735 -1.4872
 3832WAT    EPW16036   3.029   2.746   7.238  0.0030  0.4591 -0.9431
 3833WAT      O16037   0.274   0.399   0.065 -0.4640 -0.2952  0.0333
 3833WAT     H116038   0.303   0.481   0.058  0.0029 -0.5270 -0.8506
 3833WAT     H216039   0.345   0.354   0.089 -0.5754 -0.5453 -0.1013
 3833WAT    EPW16040   0.289   0.404   0.068 -0.3940  0.2561 -0.0313
 3834WAT      O16041   6.360   6.160   6.035  0.0861  0.5796 -0.5170
 3834WAT     H116042   6.343   6.216   6.100 -1.5942  0.7148 -1.0237
 3834WAT     H216043   6.442   6.178   6.014  0.2613  1.3940  0.7383
 3834WAT    EPW16044   6.370   6.171   6.041 -0.5307 -0.0013  0.1742
 3835WAT      O16045   3.936   5.406   3.665  0.2205 -0.2453 -0.0393
 3835WAT     H116046   3.996   5.425   3.605 -0.7392  0.7499 -0.7263
 3835WAT     H216047   3.913   5.324   3.645 -0.2758  0.1623 -1.2223
 3835WAT    EPW16048   3.941   5.396   3.653 -0.4906 -0.2179 -0.8677
 3836WAT      O16049   0.316   3.405   1.753 -0.1275  0.1783  1.0642
 3836WAT     H116050   0.344   3.414   1.835 -0.8076  0.7984  1.2321
 3836WAT     H216051   0.294   3.320   1.749  0.7178 -0.0564  1.2575
 3836WAT    EPW16052   0.317   3.394   1.765 -0.1456 -0.4284  0.0541
 3837WAT      O16053   2.834   4.289   0.124 -0.5761  0.1631  0.1810
 3837WAT     H116054   2.920   4.274   0.131 -0.2340  1.9621  0.2846
 3837WAT     H216055   2.811   4.242   0.055 -0.0085 -2.1917  1.4847
 3837WAT    EPW16056   2.844   4.280   0.115 -0.0904 -0.0432  0.1532
 3838WAT      O16057   3.195   0.992   0.741 -0.2721  0.6405  0.2996
 3838WAT     H116058   3.179   1.068   0.781  0.0640 -0.2369  2.2025
 3838WAT     H216059   3.117   0.967   0.712 -0.7037  0.8781  1.2208
 3838WAT    EPW16060   3.181   0.999   0.743  0.0713  0.1202  0.4335
 3839WAT      O16061   7.267   4.725   4.089 -0.2918 -0.4627  0.3587
 3839WAT     H116062   7.251   4.653   4.042  1.6593  0.1390 -1.3597
 3839WAT     H216063   7.350   4.743   4.072 -0.3308  1.4515  1.8417
 3839WAT    EPW16064   7.277   4.717   4.080  0.2175 -0.2163 -0.6147
 3840WAT      O16065   6.373   4.358   6.180 -0.9015  0.1288 -0.2730
 3840WAT     H116066   6.294   4.384   6.208 -1.0248  0.1394 -0.6312
 3840WAT     H216067   6.380   4.276   6.209 -1.8632 -0.5701 -1.8963
 3840WAT    EPW16068   6.362   4.350   6.189  0.2890  0.1550  0.4828
 3841WAT      O16069   3.421   6.693   0.077 -0.4014 -0.5968  0.1648
 3841WAT     H116070   3.491   6.641   0.076 -1.2735 -1.8241 -0.5287
 3841WAT     H216071   3.425   6.731   0.155  1.3384 -0.1842 -0.0867
 3841WAT    EPW16072   3.432   6.691   0.088  0.6989  0.3163 -0.1000
 3842WAT      O16073   4.780   2.502   7.532 -0.1452 -1.2089  0.8464
 3842WAT     H116074   4.713   2.476   7.483  2.7278 -0.8805 -3.8475
 3842WAT     H216075   4.824   2.429   7.548  1.7491 -0.9303 -2.1763
 3842WAT    EPW16076   4.777   2.488   7.527 -0.5176 -0.0363  0.0591
 3843WAT      O16077   4.837   2.692   3.751  0.3749  0.0943  0.2856
 3843WAT     H116078   4.756   2.703   3.721  0.8516  0.1978 -1.0744
 3843WAT     H216079   4.885   2.689   3.678  1.4736 -1.0123  1.0099
 3843WAT    EPW16080   4.832   2.693   3.736  0.3865 -0.2744 -0.4520
 3844WAT      O16081   3.634   6.182   1.464  0.1113 -0.6206  0.1943
 3844WAT     H116082   3.682   6.124   1.509  2.4948 -0.1052 -1.4852
 3844WAT     H216083   3.689   6.250   1.454 -1.5412  0.6723 -0.5321
 3844WAT    EPW16084   3.649   6.184   1.469 -0.4757  0.3201  0.5145
 3845WAT      O16085   1.334   3.394   3.261 -0.5411  0.1635  0.2884
 3845WAT     H116086   1.399   3.408   3.318 -1.0148 -0.0109  0.8770
 3845WAT     H216087   1.300   3.473   3.249 -0.8693  0.0993  0.7721
 3845WAT    EPW16088   1.339   3.408   3.268 -0.1039 -0.3977  0.2506
 3846WAT      O16089   3.798   3.506   5.625 -0.1510  0.1831  0.1396
 3846WAT     H116090   3.844   3.433   5.616  0.5707  0.4817  1.1891
 3846WAT     H216091   3.836   3.562   5.570 -1.2911 -0.4515 -1.3801
 3846WAT    EPW16092   3.810   3.503   5.616  0.1758 -0.0608 -0.2319
 3847WAT      O16093   2.134   1.895   7.510  0.2593  0.2247  0.4592
 3847WAT     H116094   2.078   1.865   7.450 -0.5358 -0.3568  1.4294
 3847WAT     H216095   2.212   1.880   7.476 -0.1641 -0.8608 -0.0905
 3847WAT    EPW16096   2.137   1.888   7.496 -0.1827  0.0721  0.8676
 3848WAT      O16097   2.287   2.535   3.144 -0.7870  0.7538  0.1154
 3848WAT     H116098   2.285   2.518   3.058  1.2437 -2.4791  0.5364
 3848WAT     H216099   2.341   2.604   3.149 -0.1599  0.4039 -1.1802
 3848WAT    EPW16100   2.295   2.543   3.132 -0.0516 -0.1925 -0.0672
 3849WAT      O16101   3.029   6.895   5.955  0.0917  0.8879 -0.0333
 3849WAT     H116102   3.030   6.811   5.932  1.0411  0.6108  0.9282
 3849WAT     H216103   3.056   6.937   5.884  1.5383  0.1826  0.0626
 3849WAT    EPW16104   3.033   6.889   5.941 -0.0379  0.2732  0.1866
 3850WAT      O16105   7.101   7.195   1.958  0.5166  0.2713  0.5648
 3850WAT     H116106   7.065   7.211   1.880 -1.0701  3.7839  1.7556
 3850WAT     H216107   7.057   7.126   1.988 -1.5600  1.1783 -0.2190
 3850WAT    EPW16108   7.089   7.187   1.951  0.4211  0.0267  0.5940
 3851WAT      O16109   7.145   2.475   3.590 -0.1010  0.3196  0.1812
 3851WAT     H116110   7.178   2.518   3.659  0.0531  0.3122  0.1147
 3851WAT     H216111   7.154   2.533   3.525  0.5010  0.0337  0.0036
 3851WAT    EPW16112   7.151   2.490   3.591  0.2770  0.0519 -0.1639
 3852WAT      O16113   5.330   2.226   5.885 -0.0458  0.0470  0.3874
 3852WAT     H116114   5.252   2.205   5.853  0.2708  0.3021 -0.5682
 3852WAT     H216115   5.345   2.306   5.854 -0.2737  0.8629  2.2177
 3852WAT    EPW16116   5.321   2.234   5.876  0.3864  0.9379 -0.3496
 3853WAT      O16117   5.754   7.463   0.002  0.0163 -0.3386 -0.7296
 3853WAT     H116118   5.700   7.438   0.066  0.9031 -1.0193 -0.2235
 3853WAT     H216119   5.830   7.476   0.044  1.1284 -2.6070 -1.8657
 3853WAT    EPW16120   5.757   7.461   0.018  0.0011 -1.0601  0.3465
 3854WAT      O16121   4.260   0.209   4.577 -0.7251  0.1113  0.0589
 3854WAT     H116122   4.220   0.183   4.650  0.5372  0.3212  0.8466
 3854WAT     H216123   4.261   0.137   4.527  0.6685 -0.7890  1.2889
 3854WAT    EPW16124   4.254   0.194   4.580 -0.1504 -0.8218  0.3273
 3855WAT      O16125   2.938   1.442   5.144 -0.2547  0.2202 -0.0307
 3855WAT     H116126   2.894   1.498   5.094  1.0261  0.4666 -0.9165
 3855WAT     H216127   2.875   1.392   5.179 -1.2799  1.0438 -0.6498
 3855WAT    EPW16128   2.922   1.443   5.142  0.1911  0.0912 -0.6707
 3856WAT      O16129   0.250   1.962   2.958 -0.4911  0.1238 -0.2327
 3856WAT     H116130   0.177   1.958   3.006 -0.4615  0.1314 -0.1868
 3856WAT     H216131   0.314   1.956   3.018 -0.4489  0.8036 -0.2020
 3856WAT    EPW16132   0.249   1.961   2.974  0.3402  0.3864  0.5602
 3857WAT      O16133   1.067   5.984   1.215 -0.2116  0.4784  0.2367
 3857WAT     H116134   1.013   5.981   1.283  0.6399  1.7025  0.9943
 3857WAT     H216135   1.018   5.956   1.148 -1.6203  1.0470  1.0001
 3857WAT    EPW16136   1.052   5.979   1.215 -0.5314 -0.4019 -0.0137
 3858WAT      O16137   4.044   3.538   3.807 -0.1591 -0.5296 -0.2380
 3858WAT     H116138   4.017   3.576   3.733  0.6955 -1.7117 -1.2008
 3858WAT     H216139   4.072   3.460   3.781 -1.3684 -1.6377  1.5939
 3858WAT    EPW16140   4.044   3.532   3.792  0.0343  0.7323  0.4083
 3859WAT      O16141   4.512   4.916   5.386  0.3801 -0.0884 -0.3442
 3859WAT     H116142   4.447   4.970   5.409 -0.6040 -1.4486  0.2168
 3859WAT     H216143   4.486   4.839   5.417  1.7888 -0.8778 -1.0371
 3859WAT    EPW16144   4.499   4.913   5.394 -0.3820  0.2760 -0.0687
 3860WAT      O16145   4.895   1.123   7.461  0.1190 -0.0517 -0.0212
 3860WAT     H116146   4.820   1.083   7.440 -0.3442  1.0425 -0.5750
 3860WAT     H216147   4.921   1.082   7.533 -1.2090 -0.2269  0.3882
 3860WAT    EPW16148   4.888   1.111   7.469 -0.6914  0.1586 -0.0690
 3861WAT      O16149   1.855   1.207   5.423 -0.2222 -0.5429  0.2483
 3861WAT     H116150   1.888   1.267   5.369 -1.6615 -0.6038 -0.7401
 3861WAT     H216151   1.926   1.168   5.455  0.7770  1.7336  1.0407
 3861WAT    EPW16152   1.871   1.210   5.420  0.2989 -0.1100 -0.6871
 3862WAT      O16153   1.144   6.655   7.477 -0.2304  0.3080 -0.2940
 3862WAT     H116154   1.204   6.687   7.532  0.7126  1.7042 -2.0506
 3862WAT     H216155   1.146   6.569   7.493  3.4164  0.0355 -1.3195
 3862WAT    EPW16156   1.153   6.647   7.488  0.1071  0.5475 -0.1896
 3863WAT      O16157   6.223   3.309   6.083 -0.6093 -0.0530 -0.3365
 3863WAT     H116158   6.157   3.311   6.026 -1.0385 -1.5487  0.0461
 3863WAT     H216159   6.255   3.228   6.075  1.7305  0.8635 -1.0629
 3863WAT    EPW16160   6.218   3.297   6.073  0.0508 -0.2256 -0.5929
 3864WAT      O16161   4.337   5.761   0.649  0.6637 -0.0448 -0.4843
 3864WAT     H116162   4.291   5.800   0.712  1.4619  1.0272 -0.5475
 3864WAT     H216163   4.316   5.677   0.658 -3.0567  0.5373 -1.8757
 3864WAT    EPW16164   4.327   5.755   0.660 -0.0412  0.9605 -0.1843
 3865WAT      O16165   0.307   4.061   2.077  0.4420  0.4510  0.1364
 3865WAT     H116166   0.356   4.041   2.146 -0.0070 -0.1010  0.2975
 3865WAT     H216167   0.349   4.129   2.041  0.6972  0.7201  0.9252
 3865WAT    EPW16168   0.320   4.068   2.082 -0.6520 -0.0482  0.4459
 3866WAT      O16169   2.730   3.924   2.092  0.7865  0.1596 -0.1596
 3866WAT     H116170   2.769   3.925   2.014 -0.2153  0.2847 -0.6789
 3866WAT     H216171   2.701   3.842   2.098  0.2184  0.3486 -0.2622
 3866WAT    EPW16172   2.731   3.912   2.081  0.4613 -0.0531  0.3055
 3867WAT      O16173   3.729   1.471   3.639  0.0420 -0.1713  0.1887
 3867WAT     H116174   3.785   1.532   3.668  1.9767 -1.4818 -0.5982
 3867WAT     H216175   3.754   1.458   3.556 -2.5747  0.3920 -0.7814
 3867WAT    EPW16176   3.741   1.478   3.631  0.1291  0.1798 -0.6350
 3868WAT      O16177   0.053   6.875   2.612  0.8264  0.1837 -0.5214
 3868WAT     H116178   0.109   6.940   2.595  0.5593  0.4342 -0.4496
 3868WAT     H216179   0.048   6.832   2.536  0.0569  0.9795 -0.9435
 3868WAT    EPW16180   0.060   6.878   2.598  0.3057  0.5497  0.1401
 3869WAT      O16181   4.741   6.071   6.382 -0.5257 -0.3602 -0.5026
 3869WAT     H116182   4.763   6.059   6.465 -0.8668 -3.3703 -0.7591
 3869WAT     H216183   4.670   6.121   6.386 -0.0797  0.2095  0.9189
 3869WAT    EPW16184   4.734   6.077   6.395  0.6482  0.2470  0.1484
 3870WAT      O16185   4.870   4.824   4.837 -0.0610 -0.1866 -0.0440
 3870WAT     H116186   4.926   4.839   4.772 -0.0046 -0.1958  0.0025
 3870WAT     H216187   4.922   4.798   4.902 -0.1651 -0.6390 -0.1425
 3870WAT    EPW16188   4.886   4.823   4.837 -0.3126  0.0578  0.1288
 3871WAT      O16189   6.761   5.466   0.196 -0.5647  0.1745 -0.2611
 3871WAT     H116190   6.720   5.479   0.120 -0.7329  0.3588 -0.1406
 3871WAT     H216191   6.828   5.522   0.192 -1.3200  1.1654  0.2802
 3871WAT    EPW16192   6.765   5.476   0.184  0.2640 -0.5500 -0.4791
 3872WAT      O16193   6.018   3.595   5.903  0.2813 -0.3055  0.1687
 3872WAT     H116194   6.032   3.665   5.953  1.4218  0.1153 -0.6893
 3872WAT     H216195   6.098   3.563   5.889 -0.0894 -0.9329 -0.6531
 3872WAT    EPW16196   6.032   3.600   5.908  0.3232 -0.0034  0.5242
 3873WAT      O16197   4.705   1.991   7.598 -0.1160 -0.3122 -0.6110
 3873WAT     H116198   4.686   2.001   7.514  0.3152  0.4587 -0.6267
 3873WAT     H216199   4.767   1.930   7.598  1.9550  1.6677 -1.1373
 3873WAT    EPW16200   4.711   1.983   7.586  0.1852 -0.3175 -0.3820
 3874WAT      O16201   5.144   1.623   7.437  0.0085  0.0088 -0.1710
 3874WAT     H116202   5.157   1.547   7.478  3.3789  0.6346  0.1549
 3874WAT     H216203   5.069   1.652   7.471 -0.5434 -2.3993  0.8518
 3874WAT    EPW16204   5.135   1.616   7.448  0.1748 -0.1444 -0.3216
 3875WAT      O16205   6.076   0.404   1.153 -0.3769  0.3535 -0.1750
 3875WAT     H116206   6.050   0.445   1.080  1.4134  1.3897 -0.2897
 3875WAT     H216207   6.117   0.466   1.198 -0.4065 -0.5640  1.1891
 3875WAT    EPW16208   6.078   0.419   1.149  0.4813 -0.0365  0.1800
 3876WAT      O16209   3.345   0.191   0.578  0.2170  0.1805 -0.3568
 3876WAT     H116210   3.329   0.272   0.605  1.4972 -0.0779  1.3164
 3876WAT     H216211   3.401   0.203   0.512  0.3399  0.6661 -0.1711
 3876WAT    EPW16212   3.351   0.205   0.572  0.0244  0.1379 -0.3397
 3877WAT      O16213   1.523   4.925   5.715 -0.0336  0.4822 -0.2431
 3877WAT     H116214   1.512   4.882   5.790 -0.8083  1.6018  0.3111
 3877WAT     H216215   1.508   5.008   5.736  1.7980  1.1017 -1.2001
 3877WAT    EPW16216   1.519   4.931   5.729 -0.2384 -0.1237  0.7299
 3878WAT      O16217   1.278   3.479   2.642 -0.0319 -0.1983 -0.0774
 3878WAT     H116218   1.218   3.416   2.651  0.3392 -0.6935 -0.9741
 3878WAT     H216219   1.340   3.455   2.698  1.3872 -2.2188 -2.3183
 3878WAT    EPW16220   1.278   3.466   2.652  0.4484 -0.5023 -0.6909
 3879WAT      O16221   5.322   3.377   0.722  0.2503 -0.4460  0.8779
 3879WAT     H116222   5.240   3.399   0.744  0.0900 -1.6236  1.5573
 3879WAT     H216223   5.371   3.416   0.783  0.3403  1.3289 -0.2670
 3879WAT    EPW16224   5.317   3.386   0.735  0.2230  0.1307  0.0258
 3880WAT      O16225   3.776   6.338   6.940  0.2508 -0.7527  0.4383
 3880WAT     H116226   3.715   6.388   6.979  1.2933  0.4736  0.5599
 3880WAT     H216227   3.733   6.264   6.922 -1.4217  0.2273  0.1062
 3880WAT    EPW16228   3.760   6.334   6.943 -0.1726 -0.2054  0.5162
 3881WAT      O16229   6.220   0.589   4.187  0.0383  0.0201 -0.3767
 3881WAT     H116230   6.161   0.565   4.127 -0.7989 -0.1479  0.4784
 3881WAT     H216231   6.236   0.672   4.167 -1.2173  0.3630 -0.0812
 3881WAT    EPW16232   6.213   0.598   4.175 -0.0416 -1.0612 -0.0931
 3882WAT      O16233   6.332   2.284   2.399 -0.1433 -0.1841  0.3729
 3882WAT     H116234   6.256   2.326   2.391  0.3729  1.1563  1.8899
 3882WAT     H216235   6.362   2.311   2.476  1.3874 -1.5031  0.2896
 3882WAT    EPW16236   6.325   2.294   2.409 -0.1481 -0.3152  0.6173
 3883WAT      O16237   4.772   3.880   2.670  0.4891  0.0623  0.4580
 3883WAT     H116238   4.692   3.915   2.679  0.7822  0.4345  1.9495
 3883WAT     H216239   4.772   3.816   2.729  0.6607 -1.1928 -0.8557
 3883WAT    EPW16240   4.760   3.876   2.680 -0.0388 -0.2355 -0.0240
 3884WAT      O16241   7.123   1.708   5.227 -0.1638  0.5455 -0.2874
 3884WAT     H116242   7.136   1.778   5.177  1.7691  0.0503 -0.5495
 3884WAT     H216243   7.114   1.741   5.307 -1.0219  1.1851 -0.6298
 3884WAT    EPW16244   7.123   1.723   5.231 -0.1669 -0.0218  0.0915
 3885WAT      O16245   4.410   3.014   6.556  0.3956  0.0863 -0.3642
 3885WAT     H116246   4.338   3.054   6.585  0.3407 -0.4328  0.2426
 3885WAT     H216247   4.423   2.951   6.614  0.4037 -0.8720 -1.3751
 3885WAT    EPW16248   4.401   3.011   6.569 -0.2766 -0.2260 -0.1130
 3886WAT      O16249   3.932   1.476   7.000  0.6844  0.0230  0.4842
 3886WAT     H116250   3.925   1.496   6.916 -0.9941  0.1704  0.6139
 3886WAT     H216251   3.863   1.425   7.015 -0.0563  1.3850  2.1120
 3886WAT    EPW16252   3.920   1.472   6.990  0.3141  0.4869 -0.2151
 3887WAT      O16253   4.249   0.317   4.222 -0.4581  0.2425 -0.0315
 3887WAT     H116254   4.298   0.389   4.224 -0.3800  0.2642 -1.5275
 3887WAT     H216255   4.193   0.332   4.157 -1.2868 -0.5305  0.4723
 3887WAT    EPW16256   4.248   0.330   4.213 -0.1888 -0.3734 -0.1809
 3888WAT      O16257   0.391   7.113   6.867 -0.0667 -0.0053  0.0535
 3888WAT     H116258   0.425   7.081   6.941  0.6872 -0.0002 -0.2812
 3888WAT     H216259   0.306   7.122   6.886 -0.2364 -1.7120  0.3358
 3888WAT    EPW16260   0.383   7.109   6.880  0.5163  0.8528 -0.4128
 3889WAT      O16261   3.483   5.459   6.275  0.2834  0.0610 -0.3093
 3889WAT     H116262   3.543   5.487   6.218 -0.0017  0.3888 -0.4568
 3889WAT     H216263   3.425   5.417   6.225 -0.3035  0.8999 -0.3688
 3889WAT    EPW16264   3.483   5.457   6.259 -0.0540 -0.6657 -0.0366
 3890WAT      O16265   4.907   3.126   6.441  0.0998 -0.2939  0.6564
 3890WAT     H116266   4.827   3.107   6.412  0.8737 -1.5724 -0.7952
 3890WAT     H216267   4.935   3.049   6.473  1.0834 -0.1141  0.2655
 3890WAT    EPW16268   4.900   3.112   6.442 -0.0296 -0.7853  0.5392
 3891WAT      O16269   6.849   1.656   4.016  0.1927 -0.3907 -0.2486
 3891WAT     H116270   6.762   1.660   4.020  0.2123  0.3497 -0.4321
 3891WAT     H216271   6.866   1.650   3.930  0.3260 -0.6854 -0.2063
 3891WAT    EPW16272   6.839   1.655   4.004 -0.5166 -0.0253 -0.4230
 3892WAT      O16273   5.226   6.996   2.026  0.0430  0.6150 -0.3959
 3892WAT     H116274   5.197   6.914   2.035 -2.4792  1.2682 -1.6637
 3892WAT     H216275   5.311   6.989   2.044 -0.3306 -2.0061  0.9023
 3892WAT    EPW16276   5.234   6.983   2.030 -0.0186 -0.1773  0.4182
 3893WAT      O16277   4.384   3.293   3.959 -0.4337  0.2126 -1.0924
 3893WAT     H116278   4.390   3.364   3.909  1.6536  0.8647 -0.0486
 3893WAT     H216279   4.346   3.322   4.032 -0.8236 -0.0618 -1.1842
 3893WAT    EPW16280   4.379   3.308   3.963 -0.4063 -0.0898 -0.0677
 3894WAT      O16281   6.213   4.746   3.799 -0.5257 -0.2598 -0.0670
 3894WAT     H116282   6.172   4.808   3.845  0.2341  1.2473 -1.3129
 3894WAT     H216283   6.276   4.790   3.757  1.5982 -2.2695  0.7926
 3894WAT    EPW16284   6.216   4.762   3.799  0.3430 -0.6698  0.2313
 3895WAT      O16285   5.785   6.613   6.683 -0.1828 -0.1636  0.5132
 3895WAT     H116286   5.721   6.555   6.681 -0.8669  0.5914 -1.2214
 3895WAT     H216287   5.766   6.663   6.752 -0.6825 -0.7698  0.8203
 3895WAT    EPW16288   5.773   6.612   6.693  0.5513  0.0122  0.0630
 3896WAT      O16289   6.131   3.081   3.174 -0.7163 -0.2566 -0.1142
 3896WAT     H116290   6.215   3.069   3.154 -0.2869  2.7705 -0.6399
 3896WAT     H216291   6.120   3.035   3.247  1.6389 -0.1356  0.4011
 3896WAT    EPW16292   6.142   3.073   3.182 -0.0827 -0.0586  0.2868
 3897WAT      O16293   3.512   7.079   1.698 -0.0993  0.5047  0.2957
 3897WAT     H116294   3.556   7.117   1.634  1.8920 -1.1371  0.5840
 3897WAT     H216295   3.452   7.031   1.656  0.0133  0.8268 -0.2415
 3897WAT    EPW16296   3.509   7.077   1.683 -0.1786  0.2098  0.2344
 3898WAT      O16297   4.862   5.521   1.502 -0.1220  0.2946  0.1026
 3898WAT     H116298   4.797   5.489   1.453  0.8925 -2.2306  0.2810
 3898WAT     H216299   4.928   5.529   1.446  0.2419  0.0668  0.4956
 3898WAT    EPW16300   4.862   5.517   1.486  0.1674  0.0576 -0.1881
 3899WAT      O16301   4.256   2.019   4.189  0.5710 -0.3799  0.1656
 3899WAT     H116302   4.191   1.960   4.181  0.4274 -0.2205  0.1516
 3899WAT     H216303   4.323   1.972   4.218  0.5396 -0.6085 -0.1249
 3899WAT    EPW16304   4.256   2.003   4.192 -0.0708  0.0939 -0.0621
 3900WAT      O16305   5.939   2.702   4.185 -0.3184  0.1154 -0.0785
 3900WAT     H116306   5.910   2.669   4.110 -1.4421  0.4693  0.1834
 3900WAT     H216307   5.874   2.684   4.241 -0.1949  1.2406  0.4447
 3900WAT    EPW16308   5.925   2.694   4.182  0.8648  0.0937  0.1536
 3901WAT      O16309   3.822   5.724   1.144 -0.0834 -0.5714  0.0366
 3901WAT     H116310   3.884   5.748   1.088 -0.8438  0.9997 -0.2071
 3901WAT     H216311   3.861   5.732   1.222  0.2032 -0.1650 -0.1448
 3901WAT    EPW16312   3.837   5.729   1.147  0.1186  0.0949 -0.0601
 3902WAT      O16313   6.981   3.143   3.303 -0.6577  0.1072  0.0313
 3902WAT     H116314   7.024   3.067   3.302  0.4065  0.6221 -3.1186
 3902WAT     H216315   6.987   3.168   3.387 -0.1507 -2.7305  0.9557
 3902WAT    EPW16316   6.988   3.135   3.316  0.5188  0.0326  0.6133
 3903WAT      O16317   4.527   3.773   0.670 -0.1512 -0.0792  0.3510
 3903WAT     H116318   4.599   3.819   0.687 -0.0747 -0.0356 -0.0982
 3903WAT     H216319   4.550   3.720   0.605 -0.7022  0.3824 -0.2281
 3903WAT    EPW16320   4.541   3.772   0.663 -0.5364  0.3471 -0.5346
 3904WAT      O16321   1.258   2.299   1.904  0.3160 -0.0166 -0.6219
 3904WAT     H116322   1.336   2.276   1.873  0.3758  0.7769 -1.0878
 3904WAT     H216323   1.235   2.366   1.853 -0.5797 -0.1113 -0.3580
 3904WAT    EPW16324   1.266   2.306   1.892 -0.1133  0.0348  0.0302
 3905WAT      O16325   0.274   4.754   7.559  0.2899 -0.6087 -0.0791
 3905WAT     H116326   0.285   4.703   7.489  0.4299  1.2231 -1.4651
 3905WAT     H216327   0.293   4.833   7.530 -0.0758  0.2919  1.9514
 3905WAT    EPW16328   0.278   4.758   7.545  0.1553 -0.2078 -0.4129
 3906WAT      O16329   3.470   4.556   3.639  0.2919 -0.7532 -0.7611
 3906WAT     H116330   3.466   4.494   3.700 -1.0440  0.2425  0.2098
 3906WAT     H216331   3.438   4.517   3.568 -0.1714 -1.3060 -0.2613
 3906WAT    EPW16332   3.465   4.541   3.638  0.7002  0.0424 -0.4799
 3907WAT      O16333   6.257   1.561   4.650  0.0367 -0.1000  0.1968
 3907WAT     H116334   6.284   1.492   4.604 -0.6179  0.0923 -0.4877
 3907WAT     H216335   6.210   1.607   4.593  1.1561  1.3676  0.4009
 3907WAT    EPW16336   6.254   1.557   4.635 -0.0807  0.3448 -0.0716
 3908WAT      O16337   3.784   0.155   0.382 -0.1183  0.2280 -0.1169
 3908WAT     H116338   3.705   0.180   0.412  1.3408  3.3902  1.5870
 3908WAT     H216339   3.806   0.220   0.328  0.9480 -1.1674 -1.4393
 3908WAT    EPW16340   3.775   0.169   0.378  0.2159 -0.0984 -0.2306
 3909WAT      O16341   4.375   2.353   6.627 -0.0592  0.3034  0.1357
 3909WAT     H116342   4.370   2.440   6.619 -0.6324  0.1674 -1.3398
 3909WAT     H216343   4.451   2.333   6.589 -0.2761  0.0984 -0.1932
 3909WAT    EPW16344   4.385   2.363   6.621 -0.2829  0.2294 -0.3318
 3910WAT      O16345   3.509   0.691   7.069  0.1780 -0.2277  0.2851
 3910WAT     H116346   3.585   0.710   7.032  0.2017 -0.2709  0.3113
 3910WAT     H216347   3.513   0.731   7.147  0.6457 -1.1709  0.7664
 3910WAT    EPW16348   3.521   0.700   7.075 -1.0254 -0.2343  0.0734
 3911WAT      O16349   5.625   3.312   5.050 -0.7415 -0.2325  0.0557
 3911WAT     H116350   5.606   3.370   5.113  3.6950  1.0946  0.5163
 3911WAT     H216351   5.649   3.362   4.983  2.0303 -1.4171  0.0354
 3911WAT    EPW16352   5.625   3.328   5.049  0.5043  0.0293  0.3233
 3912WAT      O16353   1.365   3.366   3.596  0.1958  0.4108 -0.6695
 3912WAT     H116354   1.419   3.365   3.527  0.4347 -0.0624 -0.4793
 3912WAT     H216355   1.358   3.282   3.617  0.3863  0.5826  0.0895
 3912WAT    EPW16356   1.372   3.353   3.589  0.1972  0.3552 -0.1775
 3913WAT      O16357   1.571   2.151   0.888 -0.3988  0.0516 -0.5303
 3913WAT     H116358   1.644   2.115   0.856  0.4280  0.4118  0.8331
 3913WAT     H216359   1.601   2.204   0.950 -1.8661 -0.3247  0.5526
 3913WAT    EPW16360   1.586   2.153   0.893 -0.1413 -0.0453 -0.6436
 3914WAT      O16361   4.008   4.105   6.934  0.0989 -0.2928 -0.0032
 3914WAT     H116362   4.080   4.142   6.968 -0.2147 -1.7369  2.4692
 3914WAT     H216363   4.021   4.111   6.848  3.0356 -0.1906  0.3435
 3914WAT    EPW16364   4.021   4.111   6.926  0.1158 -0.0268 -0.0155
 3915WAT      O16365   3.943   6.252   3.182  0.1880 -0.8555  0.0136
 3915WAT     H116366   3.923   6.282   3.103  0.6652 -0.9174 -0.1376
 3915WAT     H216367   4.025   6.282   3.194  0.1942 -1.0234  0.3933
 3915WAT    EPW16368   3.952   6.261   3.172  0.2021 -0.3852 -0.4545
 3916WAT      O16369   3.106   2.410   2.434  0.6177  0.0454 -0.5609
 3916WAT     H116370   3.088   2.451   2.359  1.2319 -1.6454 -1.7164
 3916WAT     H216371   3.137   2.333   2.407 -0.6563 -1.2717  1.4493
 3916WAT    EPW16372   3.108   2.404   2.419  0.1235 -0.2439  0.7106
 3917WAT      O16373   6.075   1.771   1.958  0.4600 -0.4550  0.0170
 3917WAT     H116374   6.099   1.710   1.900  1.2954 -0.8505  0.7522
 3917WAT     H216375   6.023   1.727   2.013  1.2646 -0.5745  0.6903
 3917WAT    EPW16376   6.071   1.755   1.957  0.6600 -0.5441 -0.2686
 3918WAT      O16377   4.817   2.331   1.382 -1.0599  0.2658  0.3615
 3918WAT     H116378   4.805   2.310   1.298 -0.2768  0.9503  0.0547
 3918WAT     H216379   4.742   2.370   1.404 -0.6609  1.6885 -0.5777
 3918WAT    EPW16380   4.804   2.334   1.373 -0.2575  0.0618 -0.0428
 3919WAT      O16381   6.706   4.749   3.171 -0.5750 -0.0586 -0.5878
 3919WAT     H116382   6.652   4.777   3.234 -0.1070  2.6312 -1.2454
 3919WAT     H216383   6.782   4.788   3.190 -0.5548  1.3010 -3.0564
 3919WAT    EPW16384   6.710   4.759   3.183  0.2181  1.0119  0.2139
 3920WAT      O16385   5.058   4.405   2.307  1.4973  0.2236  0.0692
 3920WAT     H116386   5.099   4.423   2.382  1.2813  0.6317  0.0962
 3920WAT     H216387   5.020   4.481   2.286  0.1036 -0.3317  0.4676
 3920WAT    EPW16388   5.058   4.419   2.315 -0.1847  0.1434  0.4239
 3921WAT      O16389   5.329   1.048   4.926  0.1299  0.1681  0.2652
 3921WAT     H116390   5.290   0.973   4.948  1.0478 -0.4592 -0.1965
 3921WAT     H216391   5.300   1.104   4.986  0.7775 -0.9575  1.7091
 3921WAT    EPW16392   5.319   1.045   4.938 -0.2609 -0.1784 -0.0924
 3922WAT      O16393   0.448   2.229   6.159  0.1636 -0.1859  0.5890
 3922WAT     H116394   0.425   2.273   6.231  0.1706 -1.3101  1.3064
 3922WAT     H216395   0.534   2.218   6.168 -0.1623 -2.4267  1.6875
 3922WAT    EPW16396   0.457   2.234   6.171 -0.1990 -0.0142 -0.2123
 3923WAT      O16397   0.480   1.150   0.302  0.0259  0.2439 -0.3221
 3923WAT     H116398   0.469   1.146   0.216  0.7724 -0.8400 -0.3826
 3923WAT     H216399   0.555   1.193   0.311  1.5443 -2.2072 -0.3755
 3923WAT    EPW16400   0.489   1.156   0.291 -0.1786  0.2846  0.6849
 3924WAT      O16401   6.008   5.736   3.073  0.0823 -0.4631  0.2069
 3924WAT     H116402   6.014   5.726   3.160 -0.3219  1.6146  0.5219
 3924WAT     H216403   5.928   5.707   3.055  1.3700 -4.4933 -0.1716
 3924WAT    EPW16404   5.997   5.730   3.084 -0.1237 -0.2662 -0.3232
 3925WAT      O16405   2.083   6.801   1.425  0.1931  0.3172  0.5987
 3925WAT     H116406   2.021   6.818   1.366  0.3651 -1.4932 -0.1892
 3925WAT     H216407   2.136   6.870   1.420 -0.5764  0.8667 -0.3428
 3925WAT    EPW16408   2.082   6.814   1.415  0.6718 -0.2701 -0.6787
 3926WAT      O16409   5.167   3.721   5.027  0.3555  0.2142 -0.1550
 3926WAT     H116410   5.148   3.730   5.112 -1.7636  0.9815 -0.6563
 3926WAT     H216411   5.180   3.635   5.019  1.1251  0.1893  1.0141
 3926WAT    EPW16412   5.166   3.709   5.039 -0.1149  0.1005  0.3509
 3927WAT      O16413   1.289   0.341   6.824  0.4009  0.0391  0.0045
 3927WAT     H116414   1.348   0.328   6.761  1.1774  1.3737  0.4189
 3927WAT     H216415   1.333   0.325   6.897 -0.4077 -1.1847  0.2599
 3927WAT    EPW16416   1.304   0.337   6.825  0.2267  0.1844  0.6474
 3928WAT      O16417   4.077   6.332   2.564  0.4797 -0.0623  0.0657
 3928WAT     H116418   4.069   6.276   2.631  0.5445 -0.7901 -0.5179
 3928WAT     H216419   3.994   6.346   2.540  0.4515  0.2722  0.3548
 3928WAT    EPW16420   4.064   6.326   2.571  0.5566  0.0809  0.5207
 3929WAT      O16421   6.542   2.285   4.543 -0.2022 -0.0516  0.3283
 3929WAT     H116422   6.573   2.215   4.584 -1.8180 -1.1803 -0.2663
 3929WAT     H216423   6.576   2.278   4.462 -0.7552 -0.4405  0.1242
 3929WAT    EPW16424   6.551   2.274   4.537  0.0076 -0.1515 -0.1529
 3930WAT      O16425   3.892   5.223   1.578  0.1141  0.4393 -0.1095
 3930WAT     H116426   3.961   5.190   1.537 -0.0277 -0.5808  0.4330
 3930WAT     H216427   3.868   5.159   1.633 -0.1798  1.4398  0.9834
 3930WAT    EPW16428   3.899   5.209   1.580  0.1495 -0.3825 -0.4177
 3931WAT      O16429   6.697   2.679   4.747 -0.2146  0.0765  0.3893
 3931WAT     H116430   6.726   2.656   4.827 -1.7428  1.1078  1.2941
 3931WAT     H216431   6.631   2.623   4.733 -1.4753  1.3629  0.9322
 3931WAT    EPW16432   6.691   2.667   4.757  0.3205 -0.0265 -0.3645
 3932WAT      O16433   5.329   4.103   3.768  0.7948  0.4065  0.0405
 3932WAT     H116434   5.247   4.091   3.739  0.6522  0.5953  0.3549
 3932WAT     H216435   5.359   4.167   3.716  1.8220 -1.7074 -2.1448
 3932WAT    EPW16436   5.321   4.111   3.756  0.7277  0.1283  0.0310
 3933WAT      O16437   2.168   5.539   2.344 -0.2408  0.1170 -0.0900
 3933WAT     H116438   2.102   5.587   2.376 -0.2708  1.1155 -1.5252
 3933WAT     H216439   2.135   5.509   2.268  0.4905 -0.5188 -0.1632
 3933WAT    EPW16440   2.153   5.542   2.337  0.1194  0.8230  0.2106
 3934WAT      O16441   6.035   0.138   4.878 -0.0962 -0.0018 -0.2069
 3934WAT     H116442   6.065   0.089   4.944  2.4312 -0.4821 -1.6225
 3934WAT     H216443   6.094   0.128   4.815 -2.4276  0.3921 -2.6372
 3934WAT    EPW16444   6.048   0.130   4.879 -0.2654  0.5812  0.2957
 3935WAT      O16445   3.172   2.076   7.536  0.4889  0.9572  0.3671
 3935WAT     H116446   3.227   2.059   7.471  1.2532  1.2450  0.9343
 3935WAT     H216447   3.155   1.997   7.570 -1.2315  0.5815 -1.1949
 3935WAT    EPW16448   3.177   2.061   7.531 -0.1609 -0.3009  0.2750
 3936WAT      O16449   2.553   3.042   1.431  0.0860  0.6288 -0.1746
 3936WAT     H116450   2.619   3.035   1.374 -0.6148  1.9983 -1.2140
 3936WAT     H216451   2.565   3.120   1.466 -1.2253  1.1160 -0.7370
 3936WAT    EPW16452   2.564   3.052   1.427 -0.2075  0.1911 -0.1229
 3937WAT      O16453   3.645   5.992   0.122 -0.4786  0.6326 -0.4174
 3937WAT     H116454   3.604   6.046   0.178  2.0845  1.8264  0.4817
 3937WAT     H216455   3.618   5.913   0.146 -0.2800  1.1884  1.8893
 3937WAT    EPW16456   3.635   5.988   0.134 -0.2227 -0.7474  0.6059
 3938WAT      O16457   1.000   3.827   0.379  0.5665 -0.3724  0.5501
 3938WAT     H116458   0.936   3.887   0.379  0.8726 -0.0224 -0.7767
 3938WAT     H216459   1.015   3.813   0.295  2.4080 -0.2678  0.8224
 3938WAT    EPW16460   0.993   3.834   0.367 -0.1509  0.5018  0.1661
 3939WAT      O16461   2.692   3.491   4.868 -0.0216  0.7313 -0.6580
 3939WAT     H116462   2.646   3.564   4.879 -1.0416  0.0743 -0.4794
 3939WAT     H216463   2.682   3.471   4.784 -0.8101  0.1148 -0.4316
 3939WAT    EPW16464   2.684   3.499   4.857  0.0360 -0.7022  0.6581
 3940WAT      O16465   0.713   2.527   2.431 -0.6678 -0.5805 -0.1066
 3940WAT     H116466   0.720   2.490   2.509 -1.6048  0.7517  0.6532
 3940WAT     H216467   0.775   2.488   2.383  0.5571 -0.7486  1.5513
 3940WAT    EPW16468   0.723   2.515   2.435 -0.6033  0.2452 -0.3336
 3941WAT      O16469   4.186   6.046   0.201 -0.1560  0.6691 -0.3989
 3941WAT     H116470   4.247   6.043   0.262 -0.1031  2.0380 -0.3515
 3941WAT     H216471   4.231   6.052   0.126 -0.2095  1.8523 -0.3518
 3941WAT    EPW16472   4.201   6.047   0.199  0.5997  0.4437  0.4916
 3942WAT      O16473   5.364   4.448   1.516  0.4568 -0.5141 -0.3230
 3942WAT     H116474   5.368   4.361   1.510 -2.2378 -0.8330  0.9068
 3942WAT     H216475   5.301   4.469   1.459 -1.4851  0.1354  1.8962
 3942WAT    EPW16476   5.355   4.439   1.507  0.1012 -0.3275 -0.2489
 3943WAT      O16477   5.565   3.013   6.439  0.3166 -0.2851 -0.3386
 3943WAT     H116478   5.631   3.023   6.383  0.4970  0.2449 -0.0368
 3943WAT     H216479   5.518   2.948   6.404 -0.0695  0.6201 -1.5867
 3943WAT    EPW16480   5.568   3.005   6.425 -0.6132  0.4482 -0.4380
 3944WAT      O16481   4.837   4.905   6.555  0.1132  0.2247 -0.0570
 3944WAT     H116482   4.908   4.868   6.520 -0.6578 -0.8618 -0.5132
 3944WAT     H216483   4.812   4.963   6.495 -1.7087 -2.2266 -1.8218
 3944WAT    EPW16484   4.844   4.908   6.541 -0.7525 -0.2614  0.3442
 3945WAT      O16485   1.551   1.495   4.824  0.1179 -0.5340 -0.1387
 3945WAT     H116486   1.534   1.433   4.883  0.4272 -1.5223 -1.0527
 3945WAT     H216487   1.570   1.449   4.752  0.1943  0.6374 -0.8778
 3945WAT    EPW16488   1.551   1.479   4.822 -0.0704  0.4175  0.1371
 3946WAT      O16489   5.805   6.113   6.829 -0.4108 -0.6796 -0.1810
 3946WAT     H116490   5.880   6.156   6.843  0.0092 -0.7342 -2.0075
 3946WAT     H216491   5.748   6.177   6.810 -1.7720 -0.2803  4.1639
 3946WAT    EPW16492   5.808   6.129   6.828 -0.1024  0.3192 -0.1036
 3947WAT      O16493   6.469   7.091   0.170  0.4947 -0.1531  0.1302
 3947WAT     H116494   6.385   7.097   0.192 -0.2331  0.8762 -2.5157
 3947WAT     H216495   6.499   7.172   0.182  0.9229 -0.3587  0.4398
 3947WAT    EPW16496   6.461   7.104   0.175 -0.0357  0.4586  0.3726
 3948WAT      O16497   6.740   6.932   4.179  0.1109  0.3764 -0.4177
 3948WAT     H116498   6.778   6.991   4.231 -1.4931  2.0377 -1.0207
 3948WAT     H216499   6.683   6.892   4.232  0.8231 -0.2639 -0.1313
 3948WAT    EPW16500   6.737   6.935   4.195 -0.9325  0.3813 -0.2123
 3949WAT      O16501   5.509   6.950   6.134 -0.2713 -0.5679  0.0301
 3949WAT     H116502   5.480   6.932   6.054  0.6276  2.6001 -1.1646
 3949WAT     H216503   5.590   6.918   6.135  0.0793  0.2771 -0.7288
 3949WAT    EPW16504   5.517   6.943   6.122 -0.0679 -0.0201 -0.1471
 3950WAT      O16505   6.423   3.790   0.517  0.9367 -0.1575 -0.8974
 3950WAT     H116506   6.349   3.784   0.563  1.0312  0.0196 -0.7189
 3950WAT     H216507   6.482   3.817   0.576  1.2918 -0.9294 -0.8911
 3950WAT    EPW16508   6.421   3.793   0.533  0.5921 -0.3619 -0.1306
 3951WAT      O16509   4.073   2.711   0.817  0.0651 -0.4038  0.4279
 3951WAT     H116510   4.051   2.629   0.839 -0.3941 -0.4434 -0.1520
 3951WAT     H216511   3.999   2.744   0.784  0.2590  0.2349  0.6068
 3951WAT    EPW16512   4.059   2.704   0.815 -0.0704 -0.5625  0.3116
 3952WAT      O16513   0.786   7.515   4.656 -0.3669  0.2677 -0.4447
 3952WAT     H116514   0.761   7.471   4.585  0.4146  0.8247 -1.0816
 3952WAT     H216515   0.773   7.599   4.634  2.2150  0.6185 -0.9233
 3952WAT    EPW16516   0.781   7.521   4.643  0.0376  0.1324 -0.3683
 3953WAT      O16517   2.516   0.454   0.593 -0.8073 -0.0330  0.6320
 3953WAT     H116518   2.571   0.511   0.557 -1.6175 -0.4310 -1.3906
 3953WAT     H216519   2.542   0.449   0.676 -0.7127  3.2566  0.9209
 3953WAT    EPW16520   2.528   0.461   0.600  0.0189  0.3635  0.1025
 3954WAT      O16521   4.305   1.920   2.913 -1.2385 -0.2250  0.2071
 3954WAT     H116522   4.268   1.862   2.859 -0.5868 -2.4049  1.9715
 3954WAT     H216523   4.381   1.938   2.875  0.1489 -3.3295  1.2709
 3954WAT    EPW16524   4.311   1.914   2.899 -0.3128  0.2019 -0.5438
 3955WAT      O16525   6.863   3.381   5.292  0.3825 -0.4518 -0.2735
 3955WAT     H116526   6.808   3.331   5.337  0.8723 -1.4567 -0.7684
 3955WAT     H216527   6.885   3.443   5.349  0.7952 -1.5543  0.8081
 3955WAT    EPW16528   6.858   3.383   5.307 -0.2126 -0.5493  0.0672
 3956WAT      O16529   4.226   3.131   6.731 -0.3914  0.3158  1.0032
 3956WAT     H116530   4.300   3.135   6.777  0.3493  1.5705 -0.2347
 3956WAT     H216531   4.189   3.057   6.758  1.1402 -0.1588  1.8996
 3956WAT    EPW16532   4.232   3.121   6.742 -0.2064  0.0650  0.0947
 3957WAT      O16533   1.596   6.513   0.462 -0.2365 -0.0607 -0.2419
 3957WAT     H116534   1.555   6.439   0.443  1.0836 -0.8838  0.0560
 3957WAT     H216535   1.661   6.517   0.404  1.7465 -0.8659  1.7946
 3957WAT    EPW16536   1.600   6.503   0.451 -0.5791  0.2631  0.3912
 3958WAT      O16537   4.717   3.285   7.077 -0.1030  0.1733  0.4423
 3958WAT     H116538   4.633   3.306   7.086 -0.3170 -0.9162  1.3058
 3958WAT     H216539   4.742   3.328   7.006 -1.4002  0.4931  0.1529
 3958WAT    EPW16540   4.709   3.294   7.068 -0.0242 -0.5103 -0.4505
 3959WAT      O16541   2.215   2.358   0.654  0.1213 -0.2173  0.5483
 3959WAT     H116542   2.229   2.443   0.648 -0.1206 -0.2836 -2.4339
 3959WAT     H216543   2.292   2.322   0.635  0.1561 -0.6717  1.5115
 3959WAT    EPW16544   2.228   2.365   0.650  0.3897 -0.2485 -0.0991
 3960WAT      O16545   0.589   7.045   3.170 -0.7624 -0.2838  0.3464
 3960WAT     H116546   0.548   7.005   3.104  0.0495 -0.2072 -0.2352
 3960WAT     H216547   0.670   7.056   3.139 -0.7950  1.2315  0.7270
 3960WAT    EPW16548   0.595   7.041   3.155  0.4878 -0.1979 -0.4531
 3961WAT      O16549   7.636   3.983   0.655  0.5269 -0.4087 -0.7758
 3961WAT     H116550   7.626   3.933   0.726 -2.4363  2.0408  0.7873
 3961WAT     H216551   7.657   3.927   0.592 -1.3733 -3.4087  1.0604
 3961WAT    EPW16552   7.638   3.968   0.656  0.3260 -0.2156  0.6189
 3962WAT      O16553   1.271   2.566   3.074  0.4849 -0.1810  0.0559
 3962WAT     H116554   1.273   2.649   3.101  0.0253 -0.3427  0.6045
 3962WAT     H216555   1.233   2.571   2.996 -0.7098 -0.0092  0.6326
 3962WAT    EPW16556   1.266   2.579   3.066 -0.1797  0.0345 -0.1498
 3963WAT      O16557   7.612   6.676   5.992  0.0386  0.2015  0.0241
 3963WAT     H116558   7.689   6.636   5.981  0.3405 -0.2773  3.0338
 3963WAT     H216559   7.554   6.613   5.973  0.3725  0.2402 -1.2114
 3963WAT    EPW16560   7.615   6.660   5.988 -0.4312  0.0793  0.5047
 3964WAT      O16561   6.009   7.163   5.758  0.4639 -0.4881 -0.4966
 3964WAT     H116562   6.044   7.238   5.731  0.6755 -0.0007  1.0547
 3964WAT     H216563   6.077   7.110   5.765  0.8596  0.2346  1.7738
 3964WAT    EPW16564   6.024   7.166   5.755 -0.0718  0.0528  0.3943
 3965WAT      O16565   5.043   2.404   0.580 -0.7975 -0.0026  0.0902
 3965WAT     H116566   5.075   2.367   0.508  0.4294 -1.8077  1.4731
 3965WAT     H216567   5.081   2.482   0.582 -1.5040  0.4288 -1.6066
 3965WAT    EPW16568   5.053   2.410   0.570 -0.2414 -0.2151 -0.1031
 3966WAT      O16569   4.628   3.699   0.140  0.0127 -0.2189 -0.0625
 3966WAT     H116570   4.560   3.719   0.090 -0.3941  0.3431  0.6972
 3966WAT     H216571   4.683   3.765   0.129  0.1627 -0.3671 -0.1999
 3966WAT    EPW16572   4.626   3.712   0.131 -0.0364 -0.0662 -0.1845
 3967WAT      O16573   3.475   6.398   1.233  0.3186 -0.0742  0.1775
 3967WAT     H116574   3.485   6.484   1.223 -1.3464  0.1841  0.4337
 3967WAT     H216575   3.478   6.386   1.319 -1.9491  0.1435  0.3549
 3967WAT    EPW16576   3.476   6.409   1.244 -0.2114  0.1587 -0.3688
 3968WAT      O16577   5.375   1.759   3.757  0.2323  0.3455 -0.2324
 3968WAT     H116578   5.371   1.845   3.772 -0.3048 -0.0013  1.8563
 3968WAT     H216579   5.302   1.728   3.793  1.2846 -1.1939  0.6802
 3968WAT    EPW16580   5.364   1.767   3.764  0.0431 -0.0773 -0.2115
 3969WAT      O16581   0.045   6.395   5.456 -0.0045  0.2483  0.2437
 3969WAT     H116582   0.080   6.475   5.461  0.4125  0.0590  0.4089
 3969WAT     H216583  -0.020   6.404   5.398 -0.1172  0.7619  0.4461
 3969WAT    EPW16584   0.040   6.408   5.448  0.0252 -0.0605 -0.0404
 3970WAT      O16585   1.251   5.269   3.308  0.1609 -0.1230  0.2609
 3970WAT     H116586   1.172   5.271   3.272  1.1138 -1.2062 -2.1264
 3970WAT     H216587   1.253   5.193   3.352  0.2817 -0.7551 -0.8046
 3970WAT    EPW16588   1.240   5.258   3.309 -0.3752  0.4332  0.1267
 3971WAT      O16589   5.279   1.510   0.306 -0.2119 -0.1564  0.9500
 3971WAT     H116590   5.248   1.575   0.356 -0.1029 -0.0878  0.9293
 3971WAT     H216591   5.306   1.451   0.364  1.0278  0.4328  1.0127
 3971WAT    EPW16592   5.279   1.511   0.322 -0.2210 -0.1460  0.0935
 3972WAT      O16593   6.448   4.958   6.808  0.4320 -0.3596 -0.2798
 3972WAT     H116594   6.478   5.040   6.804  1.5026 -0.7448 -0.3331
 3972WAT     H216595   6.371   4.963   6.768 -0.0224  0.8492  0.6821
 3972WAT    EPW16596   6.441   4.971   6.801 -0.4240  0.0182 -0.3920
 3973WAT      O16597   0.012   6.636   2.171  0.2031 -0.1535 -0.2911
 3973WAT     H116598   0.010   6.710   2.125 -0.6737  0.8344  1.2713
 3973WAT     H216599  -0.026   6.578   2.118 -1.3363  1.0849 -0.5984
 3973WAT    EPW16600   0.006   6.638   2.156  0.3369 -0.7488 -0.7414
 3974WAT      O16601   2.801   5.507   1.189  0.2044  0.2000 -0.1277
 3974WAT     H116602   2.768   5.469   1.118  0.9043 -1.7823  0.5290
 3974WAT     H216603   2.879   5.469   1.198 -0.0079  0.1199  1.8933
 3974WAT    EPW16604   2.808   5.496   1.180 -0.1771 -0.5713 -0.3648
 3975WAT      O16605   5.111   5.851   4.198 -0.0474  0.3133 -0.0670
 3975WAT     H116606   5.088   5.836   4.115  0.8853  0.6660 -0.3994
 3975WAT     H216607   5.180   5.799   4.210  0.0681  0.5621  0.3624
 3975WAT    EPW16608   5.118   5.841   4.187  0.1485 -0.2897  0.4417
 3976WAT      O16609   6.386   7.225   5.662  0.3233 -0.0722 -0.0220
 3976WAT     H116610   6.450   7.191   5.614 -0.8069 -0.3364 -1.3854
 3976WAT     H216611   6.356   7.157   5.707  0.6102 -0.0531  0.2085
 3976WAT    EPW16612   6.391   7.210   5.662  0.3905  0.0953 -0.0927
 3977WAT      O16613   4.389   6.951   3.003  0.2511  0.2416 -0.2137
 3977WAT     H116614   4.473   6.972   3.008 -0.2494  2.6701 -0.8137
 3977WAT     H216615   4.355   6.983   3.077 -0.4256  0.7849 -0.7483
 3977WAT    EPW16616   4.396   6.959   3.015 -0.0082 -0.3749 -0.4841
 3978WAT      O16617   5.217   1.855   5.654 -0.7185  0.0497  0.0724
 3978WAT     H116618   5.255   1.777   5.656 -1.2163 -0.2086  2.1824
 3978WAT     H216619   5.276   1.907   5.617 -0.0624 -1.1666 -0.6211
 3978WAT    EPW16620   5.231   1.851   5.649  0.3891 -0.0055  0.0590
 3979WAT      O16621   3.910   6.983   7.327 -0.3305  0.0469 -0.3926
 3979WAT     H116622   3.964   7.021   7.384 -0.8846 -2.1659  1.7925
 3979WAT     H216623   3.831   7.013   7.350 -0.7485 -1.9970  1.2099
 3979WAT    EPW16624   3.906   6.993   7.339  0.7095  0.1388  0.9310
 3980WAT      O16625   2.796   5.578   5.216  0.1718 -0.1860 -0.5375
 3980WAT     H116626   2.863   5.632   5.206 -0.2107  0.8823  1.9098
 3980WAT     H216627   2.830   5.511   5.261  0.0063 -0.5695 -0.9760
 3980WAT    EPW16628   2.811   5.576   5.221  0.4806 -0.7612 -0.9066
 3981WAT      O16629   7.063   4.085   7.398  0.3364 -0.6313 -0.5467
 3981WAT     H116630   7.113   4.142   7.354  1.5157  0.0938  1.5620
 3981WAT     H216631   7.022   4.135   7.457 -2.1396 -1.3836 -1.5115
 3981WAT    EPW16632   7.065   4.101   7.401  0.2249 -0.3073  0.5903
 3982WAT      O16633   1.055   7.264   3.533 -0.2849  0.0939  0.3728
 3982WAT     H116634   1.041   7.183   3.564 -0.3637 -0.5227 -1.1648
 3982WAT     H216635   1.141   7.266   3.519 -0.2560  0.3433  0.5958
 3982WAT    EPW16636   1.066   7.252   3.535 -0.0522 -0.0766 -0.4323
 3983WAT      O16637   7.486   6.046   7.451 -0.3883  0.0734  0.0787
 3983WAT     H116638   7.544   6.108   7.434 -0.2429 -0.1055 -0.0872
 3983WAT     H216639   7.481   6.047   7.538 -1.4862  1.3042  0.0229
 3983WAT    EPW16640   7.494   6.055   7.461 -0.2468 -0.3915  0.1765
 3984WAT      O16641   5.034   3.985   2.880  0.4725  0.1740 -0.5554
 3984WAT     H116642   4.986   3.912   2.877 -0.0473  0.5456 -2.6441
 3984WAT     H216643   4.990   4.036   2.935 -1.8619  0.6366 -2.6468
 3984WAT    EPW16644   5.020   3.982   2.888 -0.1461 -0.3495  0.1701
 3985WAT      O16645   6.615   4.081   6.655 -0.0123  0.4939  0.1560
 3985WAT     H116646   6.565   4.050   6.719 -0.4375 -0.0835 -0.4490
 3985WAT     H216647   6.605   4.023   6.591  1.0369  0.6350 -0.1571
 3985WAT    EPW16648   6.606   4.068   6.655 -0.1156 -0.1698 -0.2756
 3986WAT      O16649   7.479   1.386   7.240  0.0512 -0.4628 -0.2209
 3986WAT     H116650   7.560   1.393   7.271 -0.0383 -1.2741  0.2301
 3986WAT     H216651   7.458   1.303   7.257 -0.0543 -0.9304 -2.3065
 3986WAT    EPW16652   7.488   1.375   7.247  0.0752  0.3218 -0.5915
 3987WAT      O16653   3.222   0.477   6.188 -0.2863  0.2439  0.5605
 3987WAT     H116654   3.234   0.549   6.140  1.2634  1.1956  2.2820
 3987WAT     H216655   3.261   0.415   6.141 -0.9051  0.6606 -0.5414
 3987WAT    EPW16656   3.229   0.479   6.174  0.1177  0.2954 -0.3919
 3988WAT      O16657   4.750   6.999   3.305  0.0774  0.1442  0.0251
 3988WAT     H116658   4.800   6.961   3.244 -0.5576 -0.6543 -0.0187
 3988WAT     H216659   4.807   7.044   3.353  0.5118  1.4161 -1.5947
 3988WAT    EPW16660   4.766   7.000   3.303 -0.1110  0.5390  0.1698
 3989WAT      O16661   4.599   4.204   5.273  0.4820 -0.1556  0.1769
 3989WAT     H116662   4.657   4.139   5.276  1.3126  0.4732 -1.0183
 3989WAT     H216663   4.638   4.263   5.222 -0.3660  1.1622  1.0030
 3989WAT    EPW16664   4.613   4.203   5.266  0.2835  0.2432 -0.3812
 3990WAT      O16665   5.460   4.450   0.269 -0.2109  0.2982 -0.0685
 3990WAT     H116666   5.518   4.393   0.237 -1.5967 -1.5486  0.5393
 3990WAT     H216667   5.489   4.464   0.350 -1.3507 -1.8988  0.8247
 3990WAT    EPW16668   5.473   4.444   0.276 -0.2630  0.1319 -0.5558
 3991WAT      O16669   5.009   0.887   6.258 -0.6531 -0.0533  0.4459
 3991WAT     H116670   5.016   0.959   6.209  1.5085 -1.7351 -1.9378
 3991WAT     H216671   4.936   0.850   6.229 -1.1863  0.5835  0.9253
 3991WAT    EPW16672   4.999   0.892   6.247 -0.0833 -0.2098 -0.2408
 3992WAT      O16673   1.781   2.588   5.481 -0.7949 -0.3826  0.0419
 3992WAT     H116674   1.846   2.641   5.456 -1.7224  0.7011 -0.0898
 3992WAT     H216675   1.782   2.526   5.419  0.9512 -1.1413  0.7409
 3992WAT    EPW16676   1.791   2.586   5.468  0.5271  0.0894  0.0070
 3993WAT      O16677   0.371   5.728   2.196 -0.4988  0.0107 -0.3492
 3993WAT     H116678   0.344   5.658   2.152  0.7345  0.3870 -1.8021
 3993WAT     H216679   0.430   5.764   2.143 -0.7823  1.9266  0.5394
 3993WAT    EPW16680   0.376   5.723   2.182  0.5324 -0.4485  0.2022
 3994WAT      O16681   2.820   5.629   4.296 -0.0533 -0.3353  0.3084
 3994WAT     H116682   2.906   5.634   4.283 -0.1216 -0.3693 -0.1703
 3994WAT     H216683   2.793   5.712   4.288 -0.3869 -0.5880 -1.9349
 3994WAT    EPW16684   2.829   5.642   4.293 -0.3985  0.0689  0.2035
 3995WAT      O16685   3.044   3.091   2.762 -0.0001  0.7929 -0.6080
 3995WAT     H116686   3.090   3.074   2.691  0.6175 -2.1898  0.3908
 3995WAT     H216687   2.966   3.054   2.746  0.6954 -1.4587  0.8361
 3995WAT    EPW16688   3.039   3.083   2.749 -0.5055  0.6827 -0.2454
 3996WAT      O16689   3.537   2.207   7.241 -0.0110 -0.4762 -0.5839
 3996WAT     H116690   3.471   2.258   7.266  0.4198  0.0180 -0.4257
 3996WAT     H216691   3.590   2.207   7.311  1.5187  1.4222 -1.6100
 3996WAT    EPW16692   3.535   2.215   7.255  0.1499 -0.2646  0.5961
 3997WAT      O16693   3.947   2.711   2.727  0.0735  0.0415 -0.1742
 3997WAT     H116694   3.877   2.733   2.680 -0.5865  0.6750  1.0372
 3997WAT     H216695   3.921   2.639   2.770 -0.4507  1.1307  1.4485
 3997WAT    EPW16696   3.933   2.704   2.726 -0.1011 -0.0784 -0.3398
 3998WAT      O16697   4.464   3.044   4.584 -0.1848  0.4625 -0.1951
 3998WAT     H116698   4.450   3.130   4.578  1.1206  0.6189 -1.5895
 3998WAT     H216699   4.536   3.037   4.632  0.2504  0.2075 -0.8713
 3998WAT    EPW16700   4.472   3.055   4.590 -0.2257  0.0942  0.0956
 3999WAT      O16701   4.937   7.079   0.335  0.1577 -0.0854  0.2613
 3999WAT     H116702   4.996   7.035   0.383  0.6491  0.6976  0.3983
 3999WAT     H216703   4.903   7.018   0.284  0.7561 -0.6485  0.5162
 3999WAT    EPW16704   4.941   7.063   0.335  0.6420 -0.1482  0.5629
 4000WAT      O16705   0.855   4.326   3.498 -0.3121 -0.2204 -0.4623
 4000WAT     H116706   0.810   4.283   3.559  1.3427 -0.6460  0.5396
 4000WAT     H216707   0.876   4.264   3.441  1.1522 -0.5881  0.4225
 4000WAT    EPW16708   0.852   4.311   3.499 -0.1989 -0.5074  0.0023
 4001WAT      O16709   1.315   2.421   1.224  0.0854 -0.3652  0.6997
 4001WAT     H116710   1.348   2.345   1.252 -0.1620  0.9139  5.4207
 4001WAT     H216711   1.374   2.480   1.251 -0.2604  1.2928 -1.8323
 4001WAT    EPW16712   1.329   2.418   1.232 -0.0630  0.4063  0.2146
 4002WAT      O16713   7.507   4.253   1.676 -0.6872 -0.2147  0.0625
 4002WAT     H116714   7.579   4.231   1.721 -1.2415 -1.3715  0.4306
 4002WAT     H216715   7.516   4.339   1.664  0.3684 -0.1976  0.7877
 4002WAT    EPW16716   7.519   4.262   1.681  0.3895 -0.0861  0.1854
 4003WAT      O16717   4.471   7.334   1.755 -0.1864 -0.2212 -0.0274
 4003WAT     H116718   4.489   7.249   1.749  0.6207  0.0420 -1.9890
 4003WAT     H216719   4.418   7.349   1.688  0.9443  1.1100 -0.6841
 4003WAT    EPW16720   4.466   7.324   1.744 -1.0004  0.2352  0.1860
 4004WAT      O16721   7.460   5.892   3.428 -0.0678  0.3016  0.4994
 4004WAT     H116722   7.394   5.863   3.379  0.7402  0.5668 -0.7990
 4004WAT     H216723   7.477   5.971   3.397  0.8105  0.2706  0.8513
 4004WAT    EPW16724   7.453   5.899   3.416  0.0967 -0.6611  0.5196
 4005WAT      O16725   6.283   4.943   4.704  0.5193 -0.1537 -0.8251
 4005WAT     H116726   6.332   4.875   4.679 -1.0668 -0.7593 -2.5676
 4005WAT     H216727   6.249   4.917   4.780  1.2484 -0.5896 -0.6395
 4005WAT    EPW16728   6.285   4.929   4.711 -0.0512 -0.3685  0.5001
 4006WAT      O16729   1.140   6.879   4.406  0.3245  0.3244  0.2699
 4006WAT     H116730   1.104   6.829   4.468  1.1424 -1.1874 -0.4262
 4006WAT     H216731   1.124   6.960   4.434 -0.5394 -0.3081  1.7433
 4006WAT    EPW16732   1.132   6.883   4.420 -0.4255  0.0928  0.1868
 4007WAT      O16733   1.166   4.823   6.315 -0.3203 -0.0598  0.1947
 4007WAT     H116734   1.201   4.755   6.272  1.0892  1.8451 -1.8937
 4007WAT     H216735   1.156   4.884   6.253 -0.9885  1.8579  2.0614
 4007WAT    EPW16736   1.170   4.822   6.299  0.6353 -0.0934  0.3773
 4008WAT      O16737   5.547   6.296   0.743 -0.3369  0.3787  0.0630
 4008WAT     H116738   5.628   6.284   0.773  0.3028  1.2577 -1.2411
 4008WAT     H216739   5.507   6.337   0.809 -0.5527 -2.3383  1.7887
 4008WAT    EPW16740   5.553   6.300   0.757  0.4515  0.5042  0.7567
 4009WAT      O16741   7.119   3.786   7.347 -0.2678 -0.2132  0.0420
 4009WAT     H116742   7.138   3.871   7.353 -1.9959  0.3531 -1.5184
 4009WAT     H216743   7.076   3.780   7.271  2.0956 -2.9381 -1.3171
 4009WAT    EPW16744   7.116   3.798   7.337 -0.2460  0.8758  0.5408
 4010WAT      O16745   7.596   4.638   3.100  0.2633 -0.1519 -0.2379
 4010WAT     H116746   7.541   4.661   3.163 -0.2203  0.3071 -0.8099
 4010WAT     H216747   7.633   4.713   3.075 -1.3122  0.0987 -2.0997
 4010WAT    EPW16748   7.593   4.652   3.105  0.2940 -0.1362  0.4013
 4011WAT      O16749   0.846   6.417   2.560  0.1905 -0.0139 -0.7046
 4011WAT     H116750   0.797   6.369   2.506  1.1752 -0.8772 -0.8568
 4011WAT     H216751   0.794   6.432   2.628 -0.4538 -0.4758 -1.0862
 4011WAT    EPW16752   0.831   6.412   2.562 -0.1126 -0.1502  0.6394
 4012WAT      O16753   6.203   5.785   5.755 -0.1042  0.0783  0.2046
 4012WAT     H116754   6.123   5.753   5.746  0.0331 -0.4306  0.7221
 4012WAT     H216755   6.254   5.715   5.750  0.3199  0.4051 -0.1834
 4012WAT    EPW16756   6.199   5.770   5.753 -0.1922  0.0389  0.0153
 4013WAT      O16757   3.693   6.210   2.169 -0.0527 -0.0356 -0.5337
 4013WAT     H116758   3.716   6.166   2.241 -0.2773 -0.8113 -0.9273
 4013WAT     H216759   3.742   6.282   2.173  0.5748 -0.4785 -0.0480
 4013WAT    EPW16760   3.704   6.214   2.180  0.4314  0.5509  0.2010
 4014WAT      O16761   3.456   2.100   5.947 -0.3221  0.2047 -0.4357
 4014WAT     H116762   3.507   2.039   5.909 -0.8456 -0.6958  0.2701
 4014WAT     H216763   3.502   2.125   6.016  1.2279  2.7905 -2.2232
 4014WAT    EPW16764   3.470   2.094   5.951  0.4223  0.6348 -0.4728
 4015WAT      O16765   1.358   1.824   2.361  0.6814  0.0837 -1.3135
 4015WAT     H116766   1.444   1.827   2.346  0.6929  1.1968 -1.0602
 4015WAT     H216767   1.323   1.832   2.281  0.7990 -1.6220 -1.5732
 4015WAT    EPW16768   1.365   1.826   2.347  0.1248 -0.0316  0.5216
 4016WAT      O16769   1.547   4.253   5.904 -0.1448 -0.0204 -0.2510
 4016WAT     H116770   1.616   4.252   5.850  0.1951 -0.5545  0.1800
 4016WAT     H216771   1.497   4.188   5.876 -1.0111  1.0067 -1.2113
 4016WAT    EPW16772   1.550   4.243   5.892 -0.6187  0.3281  0.1329
 4017WAT      O16773   0.976   0.520   3.476  0.0154  0.0939 -0.0899
 4017WAT     H116774   0.917   0.459   3.495  0.5713 -0.3281  0.3345
 4017WAT     H216775   1.023   0.484   3.412  0.4313  0.0097  0.2576
 4017WAT    EPW16776   0.975   0.506   3.470  0.2354 -0.3521  0.1128
 4018WAT      O16777   7.101   3.246   4.076 -0.1430  0.1600  0.2204
 4018WAT     H116778   7.167   3.244   4.133  0.0559 -1.2682 -0.0110
 4018WAT     H216779   7.130   3.299   4.013 -0.0017  1.0462  1.0146
 4018WAT    EPW16780   7.115   3.254   4.075 -0.7629  0.3188  0.6009
 4019WAT      O16781   2.158   7.367   2.231  0.1720  0.4159  0.1851
 4019WAT     H116782   2.153   7.362   2.318  1.5564  1.8603  0.3881
 4019WAT     H216783   2.172   7.452   2.215 -0.2203  0.2189 -1.4653
 4019WAT    EPW16784   2.159   7.379   2.241  0.1166  0.7527  0.4684
 4020WAT      O16785   3.518   0.497   5.168 -0.2195  0.1264  0.6172
 4020WAT     H116786   3.582   0.477   5.113  0.2059 -1.1165  1.5222
 4020WAT     H216787   3.560   0.521   5.241 -0.7721  1.5584  0.4989
 4020WAT    EPW16788   3.534   0.498   5.171  0.8227  0.2186 -0.0048
 4021WAT      O16789   3.039   5.629   3.429 -0.3901 -0.2123  0.3037
 4021WAT     H116790   2.996   5.686   3.379 -1.4306 -1.0679  0.1843
 4021WAT     H216791   3.040   5.556   3.380 -3.3038 -1.7419  2.2662
 4021WAT    EPW16792   3.033   5.626   3.414 -0.5506  0.1686  0.0202
 4022WAT      O16793   1.310   1.916   3.587 -0.0548  0.5924 -0.2640
 4022WAT     H116794   1.344   1.918   3.506 -0.8588 -0.4801 -0.6449
 4022WAT     H216795   1.358   1.856   3.628  0.2474  1.0227  0.0279
 4022WAT    EPW16796   1.322   1.908   3.581 -0.0458  0.5324 -0.1808
 4023WAT      O16797   7.662   6.293   3.787 -0.3982  0.1572 -0.1715
 4023WAT     H116798   7.577   6.285   3.767 -0.6435 -0.5250  1.0692
 4023WAT     H216799   7.666   6.367   3.832 -0.1326  0.7557 -1.1353
 4023WAT    EPW16800   7.650   6.303   3.790  0.1466 -0.0189 -0.3345
 4024WAT      O16801   2.302   7.215   6.813  0.1243  0.1660  0.3110
 4024WAT     H116802   2.238   7.178   6.767  1.2927 -0.3982 -0.9412
 4024WAT     H216803   2.331   7.280   6.762 -1.8653  3.0027  2.4465
 4024WAT    EPW16804   2.297   7.219   6.799  0.6205 -0.2881  0.4932
 4025WAT      O16805   5.540   3.633   3.207  0.1116  0.0205 -0.0849
 4025WAT     H116806   5.513   3.619   3.289 -1.2077 -1.3652 -0.7089
 4025WAT     H216807   5.571   3.556   3.182 -0.8088  0.0170 -1.3365
 4025WAT    EPW16808   5.540   3.620   3.215  0.1332  0.0282  0.5984
 4026WAT      O16809   5.961   1.495   0.817 -0.0280 -0.1050  0.2486
 4026WAT     H116810   5.938   1.474   0.735  1.5256 -1.3182  0.0838
 4026WAT     H216811   6.041   1.463   0.825  0.6879  1.8139  1.5889
 4026WAT    EPW16812   5.969   1.487   0.806 -0.6884 -0.2205  0.5581
 4027WAT      O16813   2.406   6.544   3.563  0.0871 -0.1944 -0.1404
 4027WAT     H116814   2.460   6.608   3.538 -0.8764  0.8225  0.2770
 4027WAT     H216815   2.358   6.528   3.492 -1.2547  1.2411  0.3854
 4027WAT    EPW16816   2.407   6.551   3.549 -0.5135 -0.3118  0.1039
 4028WAT      O16817   0.545   2.645   5.114 -0.5414 -0.2674 -0.4734
 4028WAT     H116818   0.478   2.648   5.058 -1.4540 -1.5389  0.4939
 4028WAT     H216819   0.506   2.636   5.192  0.6889  1.4837  0.4122
 4028WAT    EPW16820   0.529   2.644   5.117 -0.4528 -0.0863 -0.0993
 4029WAT      O16821   5.217   0.831   7.347  0.7342 -0.6008 -0.0963
 4029WAT     H116822   5.206   0.911   7.379 -0.0799 -0.3469 -0.9492
 4029WAT     H216823   5.296   0.807   7.376  1.0218  0.5426  0.0947
 4029WAT    EPW16824   5.227   0.839   7.356 -0.3868 -0.4294 -0.3564
 4030WAT      O16825   3.854   3.260   0.286 -0.0043 -0.1252  0.4935
 4030WAT     H116826   3.839   3.346   0.289 -1.9120 -0.4418  1.0650
 4030WAT     H216827   3.840   3.234   0.369 -0.2914 -1.1071  0.1501
 4030WAT    EPW16828   3.850   3.269   0.299  0.4085  0.1397 -0.4441
 4031WAT      O16829   7.194   2.220   3.448 -0.3370  0.0550 -0.6745
 4031WAT     H116830   7.166   2.272   3.513 -1.2005  0.2855 -1.2116
 4031WAT     H216831   7.278   2.240   3.440 -0.2562  0.1529  0.2524
 4031WAT    EPW16832   7.202   2.231   3.457  0.2294 -0.1198  0.1061
 4032WAT      O16833   4.451   3.667   6.487 -0.6278 -0.1767  0.1528
 4032WAT     H116834   4.368   3.665   6.461 -0.1711  1.9776 -1.7332
 4032WAT     H216835   4.496   3.688   6.415  1.6502 -1.6509  1.0041
 4032WAT    EPW16836   4.446   3.670   6.473  0.2126 -0.1826 -0.0472
 4033WAT      O16837   2.130   6.019   4.336  0.4499 -0.6338 -0.1072
 4033WAT     H116838   2.105   5.940   4.307 -0.2118  0.4486 -2.7385
 4033WAT     H216839   2.119   6.013   4.422 -2.4258 -2.5057 -0.4503
 4033WAT    EPW16840   2.125   6.006   4.345 -0.1899 -0.4674  0.2212
 4034WAT      O16841   1.262   4.869   6.920 -0.4123 -0.1511 -0.2126
 4034WAT     H116842   1.303   4.937   6.956 -1.3769  1.1048 -1.3964
 4034WAT     H216843   1.234   4.823   6.989 -0.4467  1.0875  0.6299
 4034WAT    EPW16844   1.264   4.872   6.935  0.6050 -0.7286 -0.0445
 4035WAT      O16845   0.621   4.504   0.354  0.2199 -0.0856 -0.3526
 4035WAT     H116846   0.543   4.504   0.315  0.4803  1.4451 -0.9399
 4035WAT     H216847   0.621   4.577   0.401  1.3078 -0.0353 -0.3970
 4035WAT    EPW16848   0.610   4.515   0.355 -0.6379 -0.1374  0.1184
 4036WAT      O16849   4.668   2.042   7.290  0.1756  0.7093  0.4411
 4036WAT     H116850   4.752   2.044   7.315  0.5807 -1.6231 -0.4853
 4036WAT     H216851   4.672   2.055   7.204 -0.4304  0.6517  0.4011
 4036WAT    EPW16852   4.681   2.045   7.281  0.2957  0.2452  0.4792
 4037WAT      O16853   4.543   1.223   4.590  0.3154  0.2303  0.1577
 4037WAT     H116854   4.602   1.280   4.559  0.7180  0.6812  1.7046
 4037WAT     H216855   4.563   1.216   4.674 -3.0320  1.8622  1.2103
 4037WAT    EPW16856   4.555   1.230   4.598  0.1713  0.6075  0.0785
 4038WAT      O16857   6.810   4.331   3.849  0.1555 -0.2320  0.2120
 4038WAT     H116858   6.804   4.386   3.782 -0.4321  0.6522  0.9587
 4038WAT     H216859   6.813   4.384   3.919 -0.4943 -1.1293  0.9532
 4038WAT    EPW16860   6.809   4.347   3.850  0.0869 -0.0874  0.6087
 4039WAT      O16861   3.933   2.295   3.405 -0.2488 -0.1741  0.4672
 4039WAT     H116862   3.936   2.374   3.368  0.7001  0.2396  1.3687
 4039WAT     H216863   4.000   2.253   3.368 -1.8934 -1.2830 -1.4660
 4039WAT    EPW16864   3.944   2.301   3.394  0.2536  0.1177 -0.1252
 4040WAT      O16865   6.489   1.399   0.794 -0.0134 -0.0574  0.0282
 4040WAT     H116866   6.498   1.464   0.850 -0.7701  1.7400 -1.8080
 4040WAT     H216867   6.410   1.366   0.812  0.7172 -1.1156  1.5237
 4040WAT    EPW16868   6.479   1.403   0.805  0.2176 -0.8128  0.3662
 4041WAT      O16869   1.149   4.198   6.750  0.0192 -0.3410  0.4433
 4041WAT     H116870   1.085   4.163   6.798  0.7303 -0.4725  1.3221
 4041WAT     H216871   1.158   4.279   6.783  0.1889 -0.2704  0.2257
 4041WAT    EPW16872   1.141   4.205   6.762 -0.5360  0.0613  0.2719
 4042WAT      O16873   4.477   7.517   2.719  0.8191 -0.1137 -0.0176
 4042WAT     H116874   4.443   7.597   2.717  0.5230 -0.1704  1.3210
 4042WAT     H216875   4.449   7.485   2.796  2.1195 -0.9604  0.1433
 4042WAT    EPW16876   4.468   7.524   2.730  0.5211  0.7660 -0.1884
 4043WAT      O16877   1.576   2.776   5.439 -0.2343  0.6681 -0.8350
 4043WAT     H116878   1.640   2.717   5.451 -0.6988 -0.2681 -2.5583
 4043WAT     H216879   1.523   2.737   5.383 -2.3157  1.4824  0.4723
 4043WAT    EPW16880   1.578   2.762   5.432  0.0118 -0.4036 -0.2766
 4044WAT      O16881   6.976   3.727   7.589  0.2115  0.0058  0.3908
 4044WAT     H116882   7.019   3.733   7.513  0.2360  0.3064  0.4290
 4044WAT     H216883   7.009   3.792   7.636  0.7935 -0.6826  0.9623
 4044WAT    EPW16884   6.987   3.738   7.584  0.3221 -0.7478  0.7077
 4045WAT      O16885   6.216   0.214   7.320 -0.2085 -0.4310 -0.2335
 4045WAT     H116886   6.156   0.257   7.274  0.1744  0.6701  0.2515
 4045WAT     H216887   6.171   0.184   7.389 -0.2939  0.0316 -0.0828
 4045WAT    EPW16888   6.200   0.216   7.323  0.3256  0.3133  0.1774
 4046WAT      O16889   3.355   2.291   5.083  0.0506  0.3563 -0.5367
 4046WAT     H116890   3.274   2.266   5.060  0.3534  1.1161 -2.6216
 4046WAT     H216891   3.391   2.217   5.112 -1.1426 -0.1597 -0.2837
 4046WAT    EPW16892   3.348   2.276   5.084 -0.6991  0.2635 -0.4465
 4047WAT      O16893   4.288   6.964   6.810  0.1224  0.0802 -0.3052
 4047WAT     H116894   4.315   6.997   6.734 -1.2302  0.0986 -0.8045
 4047WAT     H216895   4.294   6.878   6.798  0.8998  0.0890 -0.0418
 4047WAT    EPW16896   4.293   6.956   6.797 -0.4597  0.5185 -0.7009
 4048WAT      O16897   2.525   1.069   0.994 -0.0405 -0.0068  0.1785
 4048WAT     H116898   2.553   1.036   1.070 -0.9184 -0.3756  0.3582
 4048WAT     H216899   2.597   1.102   0.958  0.4144  0.0299  1.0991
 4048WAT    EPW16900   2.540   1.069   1.000 -0.2250 -0.1492  0.2037
 4049WAT      O16901   4.511   1.834   1.632 -0.1591  0.1720  0.3743
 4049WAT     H116902   4.479   1.905   1.593  2.2094  0.8918 -0.3802
 4049WAT     H216903   4.524   1.778   1.566 -0.0782 -0.2092  0.7064
 4049WAT    EPW16904   4.508   1.836   1.616 -0.5371 -0.1338 -0.2699
 4050WAT      O16905   3.771   1.147   1.775  0.0949 -0.2662  0.1752
 4050WAT     H116906   3.820   1.132   1.704 -0.0650 -0.4853  0.1131
 4050WAT     H216907   3.697   1.180   1.743 -0.3349 -1.2224  0.1799
 4050WAT    EPW16908   3.768   1.150   1.760  0.8777  0.3869 -0.0816
 4051WAT      O16909   7.359   7.219   3.530 -0.1815  0.5598  0.6445
 4051WAT     H116910   7.309   7.246   3.596  0.1368 -0.4840  1.3436
 4051WAT     H216911   7.431   7.269   3.537  0.5869 -0.6523  2.1863
 4051WAT    EPW16912   7.362   7.230   3.541 -0.2188  0.0428  0.3578
 4052WAT      O16913   4.751   0.408   4.539 -0.1500  0.8818 -0.2099
 4052WAT     H116914   4.753   0.473   4.597 -3.9083  1.5219 -0.5118
 4052WAT     H216915   4.685   0.358   4.567  2.1847 -2.5764 -0.3352
 4052WAT    EPW16916   4.741   0.410   4.552  0.0767  0.4051 -0.3215
 4053WAT      O16917   2.914   6.468   4.825 -0.0311  0.4662 -0.0578
 4053WAT     H116918   2.895   6.433   4.747  2.7748  2.1081 -1.6179
 4053WAT     H216919   2.880   6.548   4.821 -0.0308  0.5045  0.5260
 4053WAT    EPW16920   2.906   6.474   4.813 -0.8216  0.2754  0.4868
 4054WAT      O16921   7.575   2.232   3.671 -0.7245  0.1440 -0.0416
 4054WAT     H116922   7.548   2.175   3.731 -0.8612 -0.8954 -1.0551
 4054WAT     H216923   7.661   2.215   3.663 -0.7800  0.0117 -0.3998
 4054WAT    EPW16924   7.584   2.222   3.678 -0.3010  0.0216 -0.6066
 4055WAT      O16925   2.725   2.879   6.920 -0.4218  0.0386 -0.6982
 4055WAT     H116926   2.651   2.837   6.942  1.5059 -1.9050  2.9903
 4055WAT     H216927   2.770   2.818   6.877 -0.0690  0.4888 -0.9687
 4055WAT    EPW16928   2.720   2.864   6.917 -0.1148  0.1865 -0.3764
 4056WAT      O16929   5.852   0.353   1.331 -0.3492  0.4443  0.1451
 4056WAT     H116930   5.808   0.428   1.330 -1.6332 -0.2970 -0.4205
 4056WAT     H216931   5.914   0.366   1.270 -2.3242  0.0686 -2.0917
 4056WAT    EPW16932   5.855   0.366   1.322  0.3877 -0.5710  0.1991
 4057WAT      O16933   1.847   2.599   2.108 -0.5088  0.2072  0.5723
 4057WAT     H116934   1.920   2.635   2.139  0.4077  0.3223 -1.5817
 4057WAT     H216935   1.873   2.557   2.036 -1.9904 -2.6482  1.5147
 4057WAT    EPW16936   1.862   2.598   2.102  0.4655  0.0192  0.6834
 4058WAT      O16937   3.110   2.143   3.266 -0.6018 -0.4177  0.0462
 4058WAT     H116938   3.098   2.193   3.336 -1.4277 -1.2447  0.5131
 4058WAT     H216939   3.173   2.088   3.291  0.2856  0.3490 -0.4562
 4058WAT    EPW16940   3.118   2.142   3.280  0.3121  0.4503  0.0219
 4059WAT      O16941   6.485   4.899   5.259 -0.3903 -0.1825 -0.0905
 4059WAT     H116942   6.513   4.981   5.246  0.9889 -0.4413  1.0426
 4059WAT     H216943   6.481   4.891   5.345  0.7401 -1.6823 -0.1276
 4059WAT    EPW16944   6.489   4.910   5.270  0.1738 -0.2371 -0.0424
 4060WAT      O16945   4.698   7.455   1.679  0.4916 -0.0998  0.0768
 4060WAT     H116946   4.748   7.384   1.677 -0.5910 -0.8767 -1.4341
 4060WAT     H216947   4.619   7.425   1.700 -0.1086  0.5545 -1.1443
 4060WAT    EPW16948   4.694   7.440   1.682  0.3496  0.5462 -0.5866
 4061WAT      O16949   5.234   6.842   5.495 -0.2726  0.2853 -0.7535
 4061WAT     H116950   5.247   6.759   5.471 -0.3978  0.1724 -0.4306
 4061WAT     H216951   5.184   6.836   5.566 -1.2686  0.6850 -1.3989
 4061WAT    EPW16952   5.229   6.829   5.502  0.4554  0.2498  0.3207
 4062WAT      O16953   0.853   5.620   0.561 -0.4673 -0.1870 -0.4557
 4062WAT     H116954   0.926   5.607   0.515  0.2632  0.8675  0.3654
 4062WAT     H216955   0.881   5.656   0.635 -1.7950 -0.0022 -0.0172
 4062WAT    EPW16956   0.868   5.624   0.565 -0.1787 -0.9492 -0.1066
 4063WAT      O16957   4.728   3.489   7.489 -0.2992  0.1693 -0.2362
 4063WAT     H116958   4.644   3.513   7.486 -0.6833 -1.0546  0.2830
 4063WAT     H216959   4.727   3.406   7.462  0.9177  0.5094 -1.4408
 4063WAT    EPW16960   4.716   3.481   7.484  0.2314  0.0636 -0.0328
 4064WAT      O16961   3.647   5.478   2.549  0.2564 -0.3790 -0.3817
 4064WAT     H116962   3.722   5.434   2.546 -0.4449 -1.8597  1.7558
 4064WAT     H216963   3.664   5.545   2.603  0.5004  0.3738 -1.3488
 4064WAT    EPW16964   3.660   5.482   2.556 -0.5669 -0.3025  0.1916
 4065WAT      O16965   4.538   6.259   2.155  0.5143 -0.3241  0.7350
 4065WAT     H116966   4.556   6.310   2.223  1.5095  1.5422 -0.8562
 4065WAT     H216967   4.468   6.297   2.119  1.4958  0.2182 -0.6863
 4065WAT    EPW16968   4.530   6.272   2.160 -0.1324  0.2630 -0.0906
 4066WAT      O16969   1.106   6.088   1.487 -0.1223 -0.1574  0.2426
 4066WAT     H116970   1.175   6.139   1.470 -0.1510 -0.0975  0.3104
 4066WAT     H216971   1.060   6.134   1.545 -0.9027  0.4048 -0.7933
 4066WAT    EPW16972   1.110   6.102   1.493 -0.1830 -0.2230 -0.3633
 4067WAT      O16973   3.514   2.557   2.285  0.1779  0.3378 -0.4014
 4067WAT     H116974   3.560   2.627   2.310  0.8233  0.2909 -1.3978
 4067WAT     H216975   3.466   2.538   2.355  0.5161  1.3501  0.1271
 4067WAT    EPW16976   3.514   2.565   2.299 -0.2447  0.9311 -0.0512
 4068WAT      O16977   0.943   3.360   5.856  0.9090  0.5284 -0.2792
 4068WAT     H116978   0.874   3.409   5.835  0.4459  0.6482  1.3344
 4068WAT     H216979   0.929   3.284   5.816 -1.5671 -0.3694  1.9813
 4068WAT    EPW16980   0.931   3.356   5.847 -0.3778  0.0674 -0.2680
 4069WAT      O16981   6.635   2.487   2.018  0.6169 -0.3336  0.1331
 4069WAT     H116982   6.568   2.432   2.009  0.1046  0.0752  1.2501
 4069WAT     H216983   6.632   2.510   2.102  0.0050  2.3698 -0.5088
 4069WAT    EPW16984   6.625   2.483   2.029 -0.0663  0.5597  0.5796
 4070WAT      O16985   5.462   4.526   2.475 -0.5303  0.1466 -0.5165
 4070WAT     H116986   5.382   4.500   2.500 -0.3855  0.2609  0.0961
 4070WAT     H216987   5.447   4.598   2.429 -0.8443 -0.3359 -1.1770
 4070WAT    EPW16988   5.448   4.533   2.472 -0.1517 -0.4303  0.1750
 4071WAT      O16989   3.523   5.713   5.195  0.4072  0.5944  0.4079
 4071WAT     H116990   3.567   5.783   5.222  0.1090  0.7151  0.5851
 4071WAT     H216991   3.579   5.647   5.208  0.4763  0.7253  0.7838
 4071WAT    EPW16992   3.538   5.714   5.201 -0.4525  0.4604  0.0830
 4072WAT      O16993   6.993   2.620   4.277 -0.7765  0.2399  0.3507
 4072WAT     H116994   6.993   2.575   4.351  1.4775 -0.1499  0.1950
 4072WAT     H216995   7.038   2.692   4.297  0.9661 -0.4243 -0.8528
 4072WAT    EPW16996   7.000   2.624   4.291  0.3435  0.0729  1.0281
 4073WAT      O16997   7.025   0.535   6.624 -0.7338 -0.2599 -0.6627
 4073WAT     H116998   7.035   0.619   6.645 -0.6046 -0.2424 -0.7902
 4073WAT     H216999   7.045   0.533   6.539 -0.4461 -0.4687 -0.5921
 4073WAT    EPW17000   7.030   0.547   6.615 -0.9689 -0.3284  0.3928
 4074WAT      O17001   3.032   5.242   4.181 -0.0744  0.2295  0.2296
 4074WAT     H117002   3.103   5.193   4.188  1.8530  2.9772  2.6772
 4074WAT     H217003   3.049   5.294   4.113 -1.1066 -0.8986 -0.9488
 4074WAT    EPW17004   3.045   5.243   4.172 -0.1823  0.2537  0.1282
 4075WAT      O17005   6.001   3.402   1.536  0.5167  1.1544 -0.2553
 4075WAT     H117006   6.042   3.402   1.612  3.1082 -1.5781 -1.4680
 4075WAT     H217007   6.042   3.464   1.490  2.3921 -0.4858 -0.9289
 4075WAT    EPW17008   6.013   3.411   1.540  0.3999  0.9245  0.1979
 4076WAT      O17009   0.115   2.160   4.646 -0.3586 -0.3539 -0.2134
 4076WAT     H117010   0.065   2.120   4.705 -1.4033 -0.6947 -1.2694
 4076WAT     H217011   0.170   2.097   4.620  2.3321  0.5906  2.5925
 4076WAT    EPW17012   0.115   2.145   4.651 -0.2246  0.1730 -0.5909
 4077WAT      O17013   5.730   5.851   4.354 -0.1454  0.0564  0.4864
 4077WAT     H117014   5.738   5.936   4.333  0.4758  0.3059  1.6577
 4077WAT     H217015   5.676   5.820   4.293 -1.6457  1.6451  0.9240
 4077WAT    EPW17016   5.723   5.859   4.342  0.2811  0.0387  0.1155
 4078WAT      O17017   5.868   5.727   3.657 -0.2649  0.3740  0.2275
 4078WAT     H117018   5.906   5.665   3.609  0.8213  1.3586 -0.2023
 4078WAT     H217019   5.839   5.785   3.598 -4.1648 -1.1361  0.3357
 4078WAT    EPW17020   5.869   5.726   3.641 -0.0140  0.0525 -0.1283
 4079WAT      O17021   6.251   3.211   0.714  0.1300 -0.3876  0.1668
 4079WAT     H117022   6.321   3.259   0.690  1.6780 -2.0349  1.1929
 4079WAT     H217023   6.276   3.174   0.788 -1.0489 -2.6618 -0.4946
 4079WAT    EPW17024   6.265   3.213   0.721  0.2528  0.5281  0.3581
 4080WAT      O17025   3.945   0.731   4.669 -0.4038  0.4474 -0.2548
 4080WAT     H117026   3.882   0.671   4.677 -0.3580  0.3004 -0.9542
 4080WAT     H217027   4.018   0.686   4.686 -0.5771  1.0278  2.5331
 4080WAT    EPW17028   3.946   0.715   4.673 -0.0092  0.2405 -0.1855
 4081WAT      O17029   6.398   5.193   3.123  0.1831 -0.3066  0.2296
 4081WAT     H117030   6.443   5.224   3.054 -1.0931 -0.9400 -0.9482
 4081WAT     H217031   6.390   5.108   3.106 -0.7723 -0.3436  0.7926
 4081WAT    EPW17032   6.403   5.185   3.110 -0.5181 -0.8825  0.0934
 4082WAT      O17033   4.350   2.124   3.909 -0.3243 -0.4060  0.1083
 4082WAT     H117034   4.310   2.194   3.876 -0.3801 -0.6995 -0.4438
 4082WAT     H217035   4.304   2.107   3.982 -0.9272 -0.4752 -0.2855
 4082WAT    EPW17036   4.338   2.132   3.915  0.0372  0.2215  0.2427
 4083WAT      O17037   6.680   0.584   6.588  0.3185 -0.1378  0.7844
 4083WAT     H117038   6.686   0.525   6.524  0.1094  0.0665  0.5749
 4083WAT     H217039   6.688   0.536   6.661  0.3690 -0.3952  0.6115
 4083WAT    EPW17040   6.682   0.568   6.589 -0.0031  0.4752  0.6497
 4084WAT      O17041   6.925   4.498   6.089 -0.1493  0.3774  0.4780
 4084WAT     H117042   6.936   4.417   6.121 -0.2385 -0.9267 -2.4550
 4084WAT     H217043   6.974   4.547   6.142  1.5041 -1.9007  1.2442
 4084WAT    EPW17044   6.934   4.493   6.102 -0.2454 -0.1062  0.1674
 4085WAT      O17045   3.718   2.274   7.444  0.2134 -0.3277  0.1297
 4085WAT     H117046   3.711   2.255   7.529  1.0341 -1.0116  0.0510
 4085WAT     H217047   3.802   2.294   7.434  0.2806 -0.9739 -0.6632
 4085WAT    EPW17048   3.729   2.275   7.455 -0.5130 -0.1523 -0.2672
 4086WAT      O17049   5.822   5.012   4.884  0.1265 -0.1363 -0.2688
 4086WAT     H117050   5.820   5.080   4.830  0.7562 -0.9295 -1.3221
 4086WAT     H217051   5.782   4.949   4.839  1.5158 -1.0865 -0.2229
 4086WAT    EPW17052   5.816   5.013   4.870 -0.0407 -0.0022 -0.4972
 4087WAT      O17053   4.785   1.330   0.733 -0.3626 -0.1510  0.3434
 4087WAT     H117054   4.771   1.286   0.660 -1.3744 -0.5338  0.7403
 4087WAT     H217055   4.843   1.391   0.710  0.6708 -1.3467 -0.3327
 4087WAT    EPW17056   4.791   1.333   0.719 -0.0504 -0.3796  0.0963
 4088WAT      O17057   3.955   3.124   4.853 -0.0320 -0.5578 -0.4835
 4088WAT     H117058   3.943   3.176   4.922 -0.4126 -0.8421 -0.3324
 4088WAT     H217059   4.015   3.166   4.806 -0.5676  0.1851 -0.5269
 4088WAT    EPW17060   3.962   3.138   4.856 -0.0937 -0.5041 -0.0482
 4089WAT      O17061   4.277   5.305   3.091  0.2773 -0.1617  0.4214
 4089WAT     H117062   4.305   5.302   3.008  1.3282 -0.4805  0.7789
 4089WAT     H217063   4.202   5.261   3.088  0.0893  0.1900 -0.4467
 4089WAT    EPW17064   4.270   5.298   3.078 -0.3113  0.4727 -0.1863
 4090WAT      O17065   4.167   6.343   7.266  0.1983 -0.4036 -0.3353
 4090WAT     H117066   4.165   6.258   7.284 -0.3623  0.0095  1.9145
 4090WAT     H217067   4.083   6.365   7.258  0.1381  0.3559  1.7619
 4090WAT    EPW17068   4.155   6.334   7.268  0.8000 -0.0244 -0.6402
 4091WAT      O17069   7.141   5.503   6.946 -0.3769  0.3407  0.1228
 4091WAT     H117070   7.197   5.469   7.004  0.6794 -0.0908 -1.1130
 4091WAT     H217071   7.075   5.446   6.946 -0.1760  0.1008  0.5471
 4091WAT    EPW17072   7.139   5.489   6.955  0.7000  0.0716 -0.2431
 4092WAT      O17073   2.430   4.902   6.276  0.2735 -0.5587  0.2019
 4092WAT     H117074   2.437   4.931   6.358  1.8330  1.2693 -0.5143
 4092WAT     H217075   2.368   4.952   6.241 -0.7986 -1.7162  0.3683
 4092WAT    EPW17076   2.422   4.913   6.283 -0.1561 -0.3313  0.5679
 4093WAT      O17077   3.634   0.857   6.682 -0.5245 -0.6509  0.6646
 4093WAT     H117078   3.624   0.942   6.668  0.9033 -0.8055 -1.8468
 4093WAT     H217079   3.553   0.825   6.672 -0.9706  0.3164  1.0664
 4093WAT    EPW17080   3.620   0.864   6.678  0.0302  0.0666  0.6079
 4094WAT      O17081   4.185   6.470   0.842 -0.2478 -0.1381  0.1167
 4094WAT     H117082   4.246   6.527   0.868  0.2089 -1.3935  1.9433
 4094WAT     H217083   4.124   6.522   0.805  1.4647  1.2191 -0.9920
 4094WAT    EPW17084   4.185   6.486   0.840 -0.0052 -0.4106  0.3297
 4095WAT      O17085   5.113   6.177   6.436 -0.1030 -0.5554 -0.2076
 4095WAT     H117086   5.094   6.257   6.409 -0.7930 -0.7062 -0.1886
 4095WAT     H217087   5.053   6.160   6.497  1.2924 -0.3115  1.3078
 4095WAT    EPW17088   5.101   6.186   6.441  0.3147  0.7116 -0.0214
 4096WAT      O17089   3.545   2.216   3.157  0.0644 -0.2569  0.2445
 4096WAT     H117090   3.525   2.292   3.119  1.6761 -0.6321 -1.5493
 4096WAT     H217091   3.476   2.165   3.138  0.1594  0.0159 -0.8938
 4096WAT    EPW17092   3.531   2.220   3.148 -0.4249 -0.3565  0.0383
 4097WAT      O17093   2.672   3.233   0.371 -0.3026  0.2245 -0.2224
 4097WAT     H117094   2.596   3.269   0.390  0.0445  2.4875 -2.5780
 4097WAT     H217095   2.676   3.164   0.424 -3.6971  0.3225  0.3726
 4097WAT    EPW17096   2.662   3.228   0.381 -0.4362 -0.2448 -0.1739
 4098WAT      O17097   3.278   7.085   5.240  0.2203 -0.3766 -0.2013
 4098WAT     H117098   3.230   7.043   5.301 -3.5151  1.3791 -1.6079
 4098WAT     H217099   3.325   7.142   5.286  4.0356 -4.3924  1.5860
 4098WAT    EPW17100   3.278   7.087   5.256  0.3009  0.6042  0.0973
 4099WAT      O17101   7.047   4.778   4.416  0.1151  0.0605 -0.2373
 4099WAT     H117102   7.045   4.864   4.402 -0.6451  0.4749  2.1135
 4099WAT     H217103   7.131   4.763   4.436  0.0021  0.4996  0.6063
 4099WAT    EPW17104   7.059   4.789   4.417  0.5780 -0.2374  0.3884
 4100WAT      O17105   4.586   0.363   3.072  0.0389 -0.3916 -0.6293
 4100WAT     H117106   4.593   0.432   3.125 -0.2735 -0.9495  0.1558
 4100WAT     H217107   4.654   0.372   3.018  0.1970  0.3489 -0.3206
 4100WAT    EPW17108   4.597   0.374   3.072  0.0989 -0.2781  0.5604
 4101WAT      O17109   3.511   0.818   7.317 -0.5379 -0.4339  0.2398
 4101WAT     H117110   3.477   0.812   7.397  2.4603 -0.3332  1.6507
 4101WAT     H217111   3.551   0.895   7.317 -0.4927 -0.4163 -1.4068
 4101WAT    EPW17112   3.512   0.828   7.329  0.8278 -0.2790 -0.2024
 4102WAT      O17113   1.269   4.969   7.439  0.1268 -0.5930 -0.2183
 4102WAT     H117114   1.204   4.961   7.497  2.1110 -0.7373  2.1295
 4102WAT     H217115   1.256   5.049   7.405 -0.9838 -0.4097  0.5903
 4102WAT    EPW17116   1.258   4.980   7.443  0.8568 -0.5967  0.4454
 4103WAT      O17117   4.507   0.809   4.018  0.7659 -0.2462 -0.2379
 4103WAT     H117118   4.568   0.846   3.967  1.7433  1.0462  1.7690
 4103WAT     H217119   4.542   0.811   4.098 -0.9425 -1.6918  0.6189
 4103WAT    EPW17120   4.521   0.815   4.022  0.4361  0.2077  0.3517
 4104WAT      O17121   4.008   2.360   7.381 -0.3365  0.0548 -0.1681
 4104WAT     H117122   4.022   2.411   7.450  0.6611  0.6649 -0.7915
 4104WAT     H217123   4.079   2.373   7.331 -0.1201 -1.8422 -0.4115
 4104WAT    EPW17124   4.020   2.370   7.384  0.5269 -0.2442 -0.0183
 4105WAT      O17125   0.674   5.070   4.742  0.6932 -0.3072  0.3945
 4105WAT     H117126   0.696   5.108   4.817 -1.4959 -1.5469  1.7911
 4105WAT     H217127   0.599   5.109   4.721  2.2194  1.4623 -2.3624
 4105WAT    EPW17128   0.666   5.081   4.750 -0.1565 -0.7007  0.5011
 4106WAT      O17129   5.797   2.536   7.158  0.3515 -0.4560 -0.1205
 4106WAT     H117130   5.879   2.563   7.159  0.4325 -0.6396 -0.8992
 4106WAT     H217131   5.795   2.479   7.091 -0.5854  0.1614 -0.6515
 4106WAT    EPW17132   5.809   2.531   7.148 -0.2398  0.0165  0.1266
 4107WAT      O17133   3.661   2.632   5.258  0.6468  0.9031  0.0312
 4107WAT     H117134   3.595   2.609   5.205 -1.5328  2.5423  1.8177
 4107WAT     H217135   3.621   2.646   5.334  3.5340 -0.6613  1.9851
 4107WAT    EPW17136   3.645   2.631   5.261  0.6064 -0.4843  0.3017
 4108WAT      O17137   1.803   2.710   4.279 -0.6027  0.2142  0.6462
 4108WAT     H117138   1.888   2.730   4.280 -0.7448  0.8401  0.6182
 4108WAT     H217139   1.769   2.762   4.340 -1.1799  0.9965 -0.3103
 4108WAT    EPW17140   1.810   2.721   4.288  0.0950 -0.0321 -0.2605
 4109WAT      O17141   7.423   4.655   6.340  0.2611  0.1807 -0.8111
 4109WAT     H117142   7.387   4.637   6.417  0.3333 -0.6585 -0.9691
 4109WAT     H217143   7.411   4.741   6.331  0.3372  0.3001  0.1775
 4109WAT    EPW17144   7.416   4.665   6.350  0.1313  0.5913 -0.2790
 4110WAT      O17145   5.234   5.078   3.799  0.3905  0.0356  0.0959
 4110WAT     H117146   5.224   5.102   3.716  2.5611  1.1448  0.1009
 4110WAT     H217147   5.207   5.147   3.844  1.0634  0.2015  0.2542
 4110WAT    EPW17148   5.228   5.091   3.793  0.2010 -0.3491  0.0197
 4111WAT      O17149   4.270   5.492   1.195  0.3774  0.1581  0.0504
 4111WAT     H117150   4.347   5.508   1.232  1.7780  1.4081 -3.1021
 4111WAT     H217151   4.270   5.406   1.183  0.6026 -0.0382  1.2775
 4111WAT    EPW17152   4.281   5.482   1.199  0.3231  0.7554  0.2379
 4112WAT      O17153   2.693   5.989   6.808  0.2069 -0.4267 -0.4367
 4112WAT     H117154   2.718   6.043   6.744 -2.3755 -1.0244 -2.0632
 4112WAT     H217155   2.743   5.918   6.795  1.2024  0.2342 -0.3976
 4112WAT    EPW17156   2.704   5.987   6.796  0.4227 -0.6794  0.1023
 4113WAT      O17157   4.109   5.390   0.104  0.1690 -0.3052  0.3441
 4113WAT     H117158   4.109   5.371   0.019 -0.6494  0.0518  0.2489
 4113WAT     H217159   4.188   5.367   0.131  0.8648  0.6652 -0.7618
 4113WAT    EPW17160   4.120   5.384   0.096  0.1083 -0.2435 -0.2742
 4114WAT      O17161   2.532   6.633   1.576  0.2363  0.5577  0.0182
 4114WAT     H117162   2.467   6.653   1.631 -1.9486 -0.2691 -2.0734
 4114WAT     H217163   2.521   6.690   1.511 -1.1918 -2.1877 -2.3503
 4114WAT    EPW17164   2.520   6.645   1.575  0.2445 -0.2296  1.0090
 4115WAT      O17165   7.625   5.593   3.796  0.4140 -0.5754  0.0875
 4115WAT     H117166   7.584   5.555   3.730  1.0816 -3.0277  0.9804
 4115WAT     H217167   7.586   5.670   3.803  0.5974 -0.0279 -3.3670
 4115WAT    EPW17168   7.613   5.599   3.788 -0.4801  0.0573  0.1322
 4116WAT      O17169   1.739   2.933   2.540  0.3172 -0.0701 -0.4273
 4116WAT     H117170   1.752   2.852   2.509  2.0661  0.8915 -2.4989
 4116WAT     H217171   1.662   2.927   2.580  0.9357 -3.0434  0.6205
 4116WAT    EPW17172   1.730   2.920   2.541 -0.0839  0.2115  0.1593
 4117WAT      O17173   0.745   3.956   5.962  0.1919 -0.1668  0.7369
 4117WAT     H117174   0.749   3.871   5.947 -0.9329 -0.3159  1.2326
 4117WAT     H217175   0.752   3.992   5.883  2.5323 -0.6192  0.6779
 4117WAT    EPW17176   0.747   3.949   5.948 -0.3897  0.0209 -0.8154
 4118WAT      O17177   4.492   6.195   6.433 -0.1368 -0.0570 -0.0846
 4118WAT     H117178   4.450   6.269   6.414  0.7542  0.5550  0.2349
 4118WAT     H217179   4.447   6.161   6.499 -0.7769  0.0003 -0.4845
 4118WAT    EPW17180   4.479   6.201   6.440 -0.0415  0.6111 -0.3416
 4119WAT      O17181   2.260   4.479   6.611  0.4788 -0.1597 -0.1340
 4119WAT     H117182   2.302   4.421   6.662  2.4224  0.4536 -0.9391
 4119WAT     H217183   2.247   4.435   6.537  0.1782 -0.1787 -0.0704
 4119WAT    EPW17184   2.265   4.464   6.608  0.8235 -0.3424  0.2041
 4120WAT      O17185   3.225   5.605   1.612  0.0452  0.0685  0.1275
 4120WAT     H117186   3.264   5.637   1.683 -1.0206  0.9299  0.3677
 4120WAT     H217187   3.281   5.623   1.547  1.0359 -0.7497  0.7339
 4120WAT    EPW17188   3.239   5.613   1.613  0.4309 -0.0464 -0.2071
 4121WAT      O17189   2.686   4.906   1.543 -1.4423  0.4254  0.5052
 4121WAT     H117190   2.697   4.820   1.553 -2.2672  0.3679  1.0484
 4121WAT     H217191   2.747   4.940   1.596 -2.1234  0.1453  1.5076
 4121WAT    EPW17192   2.697   4.898   1.552 -0.2988  0.5442  0.2863
 4122WAT      O17193   4.906   2.977   0.912  0.0695  0.3225 -0.4838
 4122WAT     H117194   4.885   3.061   0.922  0.7091  0.3635  0.6865
 4122WAT     H217195   4.835   2.934   0.939  0.7398  0.4797  1.7046
 4122WAT    EPW17196   4.892   2.983   0.917 -0.4803 -0.2371 -0.1377
 4123WAT      O17197   4.485   6.155   1.635 -0.0837  0.1415 -0.0485
 4123WAT     H117198   4.471   6.196   1.559 -0.4115 -0.1679 -0.1566
 4123WAT     H217199   4.533   6.213   1.680  2.2104 -0.5632 -1.3699
 4123WAT    EPW17200   4.490   6.170   1.630 -0.0916  0.3431  0.0321
 4124WAT      O17201   1.676   1.937   5.399  0.0111 -0.9055  0.0284
 4124WAT     H117202   1.652   2.004   5.450 -0.4171  0.5642 -1.9680
 4124WAT     H217203   1.717   1.976   5.332 -0.2417 -2.6331 -1.2065
 4124WAT    EPW17204   1.678   1.953   5.396 -0.1339 -0.6688 -0.8580
 4125WAT      O17205   4.039   5.330   2.204  0.1537 -0.2890 -0.2291
 4125WAT     H117206   4.098   5.318   2.267 -1.1375 -2.4576  0.7004
 4125WAT     H217207   4.081   5.306   2.132  0.8507 -0.3801  0.1943
 4125WAT    EPW17208   4.054   5.325   2.203  0.4129  0.3416  0.5099
 4126WAT      O17209   5.439   6.442   7.320  0.7991 -0.4560  0.1397
 4126WAT     H117210   5.506   6.497   7.320  2.1463 -2.0172 -0.1123
 4126WAT     H217211   5.459   6.386   7.256  0.0425 -1.8777  1.1034
 4126WAT    EPW17212   5.452   6.442   7.310  0.1583 -0.0340  0.2371
 4127WAT      O17213   7.412   1.687   6.368  0.7625 -0.2347 -0.1832
 4127WAT     H117214   7.367   1.621   6.404  1.2616 -0.1344  0.6610
 4127WAT     H217215   7.370   1.703   6.293 -0.3907 -0.3902  0.4080
 4127WAT    EPW17216   7.399   1.680   6.363 -0.0040 -0.1775 -0.1707
 4128WAT      O17217   2.706   6.592   0.498 -0.2302  0.0469 -0.2982
 4128WAT     H117218   2.723   6.555   0.421 -1.0605  1.8063 -1.3768
 4128WAT     H217219   2.775   6.644   0.511  0.1209 -0.5618  0.3989
 4128WAT    EPW17220   2.719   6.594   0.489 -0.0819  0.3902  0.1435
 4129WAT      O17221   0.840   1.737   3.009  0.2110  0.4319 -0.1612
 4129WAT     H117222   0.809   1.765   3.085 -0.2909 -0.8671  0.1302
 4129WAT     H217223   0.900   1.797   2.988 -1.1388  1.9776  0.1841
 4129WAT    EPW17224   0.844   1.750   3.017  0.1745 -0.1279  0.2629
 4130WAT      O17225   5.329   3.919   2.063  0.2140  0.2968  0.4942
 4130WAT     H117226   5.318   4.005   2.062  0.7344  0.3622  0.1932
 4130WAT     H217227   5.407   3.908   2.027  0.6894 -0.2171  1.6154
 4130WAT    EPW17228   5.339   3.930   2.058 -0.8610 -0.1990  0.1791
 4131WAT      O17229   5.228   5.776   6.417  0.2462  0.4154 -0.2778
 4131WAT     H117230   5.167   5.821   6.374 -0.4340  1.1051  1.3557
 4131WAT     H217231   5.302   5.795   6.374 -0.4932  0.4855 -1.5776
 4131WAT    EPW17232   5.230   5.785   6.404  0.0402  0.4637  0.1967
 4132WAT      O17233   2.717   3.354   6.271  0.0162  0.2806  0.3729
 4132WAT     H117234   2.789   3.400   6.253  0.4092 -0.2199  0.6556
 4132WAT     H217235   2.732   3.277   6.234 -1.5446  1.0023 -1.9928
 4132WAT    EPW17236   2.730   3.350   6.263  0.2837  0.1860  0.1430
 4133WAT      O17237   3.858   7.281   4.129 -0.7969  0.2866  0.4350
 4133WAT     H117238   3.907   7.258   4.197  2.5270 -0.0036 -1.8250
 4133WAT     H217239   3.891   7.357   4.103 -0.1071 -0.8313 -2.3352
 4133WAT    EPW17240   3.870   7.289   4.135 -0.3686 -0.1063  0.4242
 4134WAT      O17241   0.938   2.590   6.805 -0.3517  0.1962 -0.3592
 4134WAT     H117242   0.898   2.665   6.825 -0.5584  0.0877 -0.3643
 4134WAT     H217243   0.918   2.577   6.721  0.5668  0.6813 -0.6752
 4134WAT    EPW17244   0.929   2.599   6.796  0.3261 -0.0031 -0.5381
 4135WAT      O17245   2.452   6.772   3.873  0.5175  0.5364 -0.1894
 4135WAT     H117246   2.478   6.853   3.890  0.3285  0.6924 -0.6177
 4135WAT     H217247   2.371   6.768   3.904  0.3242  0.6906 -0.6616
 4135WAT    EPW17248   2.444   6.783   3.880 -0.0136  0.2092 -0.2063
 4136WAT      O17249   4.967   3.262   0.782 -0.0603  0.3090 -0.2316
 4136WAT     H117250   4.888   3.286   0.753  0.6574  0.0614 -2.6405
 4136WAT     H217251   5.006   3.338   0.801 -0.8974  0.4227  1.1931
 4136WAT    EPW17252   4.961   3.277   0.780  0.4267 -0.3913  0.7957
 4137WAT      O17253   0.129   1.962   3.754 -0.1408  0.3812 -0.0870
 4137WAT     H117254   0.197   2.011   3.780 -0.0131  0.1978 -0.0739
 4137WAT     H217255   0.138   1.959   3.667 -1.6522  2.6169 -0.4070
 4137WAT    EPW17256   0.140   1.969   3.745  0.1833  0.2164  0.5769
 4138WAT      O17257   5.309   7.458   7.379 -0.1004 -0.2865  0.0488
 4138WAT     H117258   5.323   7.387   7.429  0.7607 -2.3139 -2.7821
 4138WAT     H217259   5.231   7.486   7.405 -1.4041 -3.4740  0.1169
 4138WAT    EPW17260   5.299   7.452   7.391  0.3377  0.4329  0.1866
 4139WAT      O17261   3.039   0.278   2.016  0.1942  0.4056 -0.2584
 4139WAT     H117262   3.084   0.203   2.019  1.4221  1.0721 -1.0307
 4139WAT     H217263   2.964   0.256   1.978  1.7955  0.0887 -3.5605
 4139WAT    EPW17264   3.035   0.264   2.011  0.3418 -0.7342  0.0405
 4140WAT      O17265   0.092   7.125   1.362 -0.6319 -0.0217  0.5672
 4140WAT     H117266   0.174   7.155   1.356 -0.8969  0.4639 -0.8558
 4140WAT     H217267   0.088   7.095   1.444  0.6112  0.9862  1.0306
 4140WAT    EPW17268   0.104   7.125   1.373  0.0049  0.1270 -0.2988
 4141WAT      O17269   4.517   0.495   3.320  0.5458  0.0980  0.4918
 4141WAT     H117270   4.452   0.441   3.339 -0.8849  1.7886  0.6490
 4141WAT     H217271   4.477   0.563   3.282  2.0918  1.5768  1.3601
 4141WAT    EPW17272   4.502   0.497   3.317  0.8875  0.5181  0.2734
 4142WAT      O17273   0.261   2.589   3.370  0.2706 -0.0003 -0.0812
 4142WAT     H117274   0.323   2.594   3.309 -1.3800 -0.2042 -1.8925
 4142WAT     H217275   0.238   2.505   3.370 -1.6816  0.4647 -1.3196
 4142WAT    EPW17276   0.267   2.578   3.361  0.2070  0.0947 -0.1042
 4143WAT      O17277   3.738   6.071   3.593  0.4784  0.2234  0.3039
 4143WAT     H117278   3.783   6.045   3.663  0.6223  1.2796  0.6159
 4143WAT     H217279   3.788   6.132   3.557 -0.2309  0.6716  0.0663
 4143WAT    EPW17280   3.752   6.076   3.598  0.0962  0.0585  0.1716
 4144WAT      O17281   7.514   4.708   1.131 -0.7512 -0.0771  0.2559
 4144WAT     H117282   7.443   4.691   1.179 -0.1474 -1.9578  0.5784
 4144WAT     H217283   7.530   4.631   1.093  0.6149  0.5599 -0.4935
 4144WAT    EPW17284   7.506   4.694   1.132 -0.2305 -0.2173 -0.0097
 4145WAT      O17285   4.511   3.452   1.569  0.2243  0.0091  0.4294
 4145WAT     H117286   4.591   3.422   1.553  0.4042  1.1472 -1.0580
 4145WAT     H217287   4.471   3.385   1.608  2.2427 -0.1382  2.4465
 4145WAT    EPW17288   4.517   3.438   1.572  0.7057  0.2492 -0.0821
 4146WAT      O17289   7.229   4.207   3.103 -0.0105 -0.1733  0.2907
 4146WAT     H117290   7.268   4.274   3.144  1.2379 -0.8467  0.2648
 4146WAT     H217291   7.293   4.148   3.096 -0.1962 -0.1818 -2.4194
 4146WAT    EPW17292   7.244   4.208   3.108 -0.5111  0.3493  0.1115
 4147WAT      O17293   1.209   7.296   7.526 -0.2989 -0.4824  0.3687
 4147WAT     H117294   1.207   7.356   7.462 -1.7737 -2.8614 -2.0410
 4147WAT     H217295   1.291   7.266   7.523 -0.2238 -0.2459 -0.0828
 4147WAT    EPW17296   1.221   7.300   7.516 -0.1161  0.0238  0.2959
 4148WAT      O17297   3.118   2.171   6.465 -0.5555 -0.3202 -0.4607
 4148WAT     H117298   3.111   2.106   6.522 -1.2080 -0.6683 -0.9370
 4148WAT     H217299   3.190   2.150   6.419 -0.8380 -0.7775 -0.7009
 4148WAT    EPW17300   3.128   2.158   6.466 -0.7840  0.1409 -0.4979
 4149WAT      O17301   0.358   3.780   2.456 -0.5730 -0.3614  0.5864
 4149WAT     H117302   0.303   3.840   2.487  1.5128  1.2923  1.2482
 4149WAT     H217303   0.415   3.768   2.521  1.1131 -0.3862 -0.8145
 4149WAT    EPW17304   0.358   3.787   2.470  0.1186  0.3984 -0.3229
 4150WAT      O17305   3.977   3.795   2.121  0.4249 -0.2235  0.3624
 4150WAT     H117306   3.947   3.862   2.074 -0.0129  0.2202  1.2393
 4150WAT     H217307   4.063   3.796   2.108  0.1875 -1.0853 -1.6548
 4150WAT    EPW17308   3.985   3.805   2.112  0.1879 -0.1416  0.3595
 4151WAT      O17309   2.092   4.512   2.535  0.3876 -0.2333 -0.3991
 4151WAT     H117310   2.035   4.578   2.533 -0.6791 -1.0560  1.2217
 4151WAT     H217311   2.080   4.473   2.458  0.6788  1.1189 -1.1765
 4151WAT    EPW17312   2.082   4.516   2.523 -0.0646 -0.2206  0.1146
 4152WAT      O17313   2.320   2.617   5.418 -0.0727  0.1559 -0.8774
 4152WAT     H117314   2.241   2.588   5.393 -0.7071 -0.3823  1.4733
 4152WAT     H217315   2.366   2.543   5.428  0.6762  0.4569 -1.9686
 4152WAT    EPW17316   2.315   2.601   5.416 -0.0945  0.5078  0.1174
 4153WAT      O17317   4.353   5.883   3.899  0.2457  0.4966 -0.6990
 4153WAT     H117318   4.339   5.815   3.951 -0.4819  1.1586  0.0012
 4153WAT     H217319   4.322   5.951   3.945  0.1037  1.1737 -1.7545
 4153WAT    EPW17320   4.346   5.883   3.913 -0.0763  0.0307 -0.3028
 4154WAT      O17321   1.939   6.157   5.728 -0.5703 -0.1931  0.5462
 4154WAT     H117322   2.007   6.124   5.685 -1.7505 -1.1926 -0.6594
 4154WAT     H217323   1.968   6.167   5.809  0.8903 -0.9538  0.1404
 4154WAT    EPW17324   1.953   6.153   5.734  0.5699  0.6649  0.3552
 4155WAT      O17325   4.503   1.229   3.250  0.2882 -0.0508  0.3588
 4155WAT     H117326   4.491   1.280   3.180  1.2081 -3.2486 -2.3796
 4155WAT     H217327   4.547   1.281   3.305 -0.3037  2.6049 -1.4551
 4155WAT    EPW17328   4.508   1.245   3.248 -0.1452  0.4629 -0.0606
 4156WAT      O17329   5.245   5.752   5.232  0.2824  0.0393 -0.2708
 4156WAT     H117330   5.260   5.666   5.229  1.2723  0.2190 -1.0033
 4156WAT     H217331   5.304   5.785   5.176 -1.1211  1.0629 -1.1951
 4156WAT    EPW17332   5.256   5.744   5.224 -0.5121 -0.0325 -0.1998
 4157WAT      O17333   1.840   6.263   2.441  0.0638  0.3564 -0.8502
 4157WAT     H117334   1.785   6.205   2.477  0.5382  0.7018  0.5030
 4157WAT     H217335   1.905   6.213   2.410  0.3544  0.1326  0.0909
 4157WAT    EPW17336   1.841   6.247   2.442 -0.4209  0.0690 -0.5058
 4158WAT      O17337   6.942   1.767   1.192  0.3238 -0.0951  0.1960
 4158WAT     H117338   6.981   1.837   1.156  1.5079 -0.1834  1.2220
 4158WAT     H217339   7.003   1.736   1.246 -1.4615  0.2276  2.5274
 4158WAT    EPW17340   6.957   1.773   1.194 -0.3935 -0.2759  0.0160
 4159WAT      O17341   3.547   1.668   3.535 -0.8131 -0.0554  0.1671
 4159WAT     H117342   3.593   1.606   3.575 -1.1604 -0.6142 -0.2924
 4159WAT     H217343   3.608   1.717   3.497 -0.6087 -1.0771 -0.8521
 4159WAT    EPW17344   3.563   1.666   3.535  0.2126  0.4091  0.3083
 4160WAT      O17345   3.443   5.364   0.847  0.1531 -0.0667  0.0411
 4160WAT     H117346   3.528   5.365   0.866 -0.1074 -1.9652  1.6606
 4160WAT     H217347   3.435   5.293   0.796 -0.2084  1.2222 -1.7897
 4160WAT    EPW17348   3.454   5.353   0.842  0.4123 -0.1158  0.1248
 4161WAT      O17349   5.952   7.062   6.641 -0.5647  0.4320  0.2175
 4161WAT     H117350   5.919   7.078   6.562 -1.2027  0.5685  0.5046
 4161WAT     H217351   5.882   7.042   6.689 -0.0910 -0.4839  0.5524
 4161WAT    EPW17352   5.936   7.062   6.636  0.5854  0.3162 -0.1424
 4162WAT      O17353   5.960   0.730   5.880  0.4596 -0.7334  0.0631
 4162WAT     H117354   5.978   0.816   5.885 -0.0779 -0.5956 -0.2848
 4162WAT     H217355   5.875   0.725   5.897  0.2270 -1.0560 -1.0931
 4162WAT    EPW17356   5.950   0.742   5.883  0.1000  0.3045  0.0779
 4163WAT      O17357   6.864   3.376   3.643 -0.4917 -0.1724 -0.1282
 4163WAT     H117358   6.875   3.454   3.606 -0.8330 -0.8771 -1.8096
 4163WAT     H217359   6.940   3.336   3.629 -0.9010 -0.7341 -0.8606
 4163WAT    EPW17360   6.877   3.382   3.635  0.4124 -0.5616 -0.5820
 4164WAT      O17361   5.509   3.223   0.488 -0.2692  0.5392  0.8805
 4164WAT     H117362   5.467   3.299   0.496  1.7666  1.6693  1.5729
 4164WAT     H217363   5.559   3.235   0.418 -1.2422 -0.8830 -0.1087
 4164WAT    EPW17364   5.510   3.236   0.479 -0.2486  0.4697  0.2860
 4165WAT      O17365   1.317   4.591   6.256 -0.3643 -0.1604 -0.3496
 4165WAT     H117366   1.317   4.551   6.179 -0.7632 -0.1495 -0.3569
 4165WAT     H217367   1.400   4.616   6.266 -0.4648  0.5268 -1.1336
 4165WAT    EPW17368   1.329   4.589   6.246 -0.5575 -0.1298  0.0812
 4166WAT      O17369   4.032   3.928   1.387  0.7669  0.4717  0.2967
 4166WAT     H117370   4.027   3.922   1.473  2.2800 -0.2248  0.3610
 4166WAT     H217371   4.093   3.989   1.374  1.2953 -0.1608 -0.2612
 4166WAT    EPW17372   4.041   3.937   1.397 -0.1960  0.1380  0.5090
 4167WAT      O17373   4.974   4.003   6.947 -0.4127 -0.1421 -0.0166
 4167WAT     H117374   5.044   4.044   6.914 -0.1538 -0.9458 -0.4899
 4167WAT     H217375   4.976   3.925   6.908 -1.6647 -0.1209 -0.1503
 4167WAT    EPW17376   4.985   3.997   6.936 -0.0067 -0.5230  0.7438
 4168WAT      O17377   1.980   6.732   0.110  0.3987  0.6533  0.0548
 4168WAT     H117378   1.979   6.665   0.055 -0.9856 -1.0965  2.0751
 4168WAT     H217379   1.952   6.799   0.061  0.6098 -0.4860 -1.6938
 4168WAT    EPW17380   1.976   6.732   0.095 -0.7426  0.1754 -0.2121
 4169WAT      O17381   6.292   7.574   6.259 -0.4929  0.2547  0.2189
 4169WAT     H117382   6.283   7.607   6.339 -1.5439 -1.6121  0.9197
 4169WAT     H217383   6.212   7.580   6.225 -0.4808 -0.6383  0.0081
 4169WAT    EPW17384   6.279   7.580   6.266  0.0198  0.1334  0.2823
 4170WAT      O17385   2.341   2.028   1.424  0.6825  0.2543 -0.0388
 4170WAT     H117386   2.400   2.001   1.365  0.1155 -1.1021 -0.0139
 4170WAT     H217387   2.361   1.982   1.495  1.2666  1.7718  0.8230
 4170WAT    EPW17388   2.353   2.017   1.426  0.0354 -0.2851 -0.4228
 4171WAT      O17389   3.839   7.378   1.514 -0.3341 -0.0622  0.0805
 4171WAT     H117390   3.806   7.382   1.594  2.1027 -0.0680  1.1720
 4171WAT     H217391   3.866   7.296   1.507  0.1715  0.1436 -0.4438
 4171WAT    EPW17392   3.838   7.366   1.525  0.2537  0.5649  0.2430
 4172WAT      O17393   4.863   5.627   4.279 -0.1406 -0.5044  0.3460
 4172WAT     H117394   4.916   5.588   4.222  1.9011 -0.1046  1.8297
 4172WAT     H217395   4.792   5.577   4.280  0.9390 -2.1236 -0.4485
 4172WAT    EPW17396   4.861   5.614   4.271  0.7021 -0.7930 -0.5293
 4173WAT      O17397   6.237   4.755   1.808 -0.2010  0.0676  0.2026
 4173WAT     H117398   6.168   4.795   1.772  0.1482  0.9254  0.4730
 4173WAT     H217399   6.224   4.764   1.894  0.9405  1.4813  0.2605
 4173WAT    EPW17400   6.225   4.762   1.815 -0.3980 -0.0241  0.1592
 4174WAT      O17401   4.205   0.219   1.204 -0.1722  0.3228 -0.2633
 4174WAT     H117402   4.226   0.302   1.184 -0.2964  0.7961  1.3665
 4174WAT     H217403   4.234   0.210   1.286  1.1033 -1.7371 -0.8719
 4174WAT    EPW17404   4.212   0.230   1.213 -0.3581 -0.5918  0.4788
 4175WAT      O17405   2.664   2.009   4.226  0.0413  0.4355  0.2134
 4175WAT     H117406   2.639   1.946   4.172  0.2434 -0.5560  1.2577
 4175WAT     H217407   2.613   2.076   4.204 -0.0574 -0.0142 -1.0239
 4175WAT    EPW17408   2.653   2.010   4.215 -0.0500 -0.1766 -0.4116
 4176WAT      O17409   4.873   2.170   4.997  0.9758 -0.1151  0.3001
 4176WAT     H117410   4.874   2.245   5.042 -1.4399  1.5402 -2.0572
 4176WAT     H217411   4.899   2.194   4.917  0.5053 -1.8451 -0.4103
 4176WAT    EPW17412   4.877   2.185   4.992  0.0145 -0.2673  0.6043
 4177WAT      O17413   3.532   2.631   0.418  0.1619  0.0914  0.0406
 4177WAT     H117414   3.533   2.646   0.332  1.2397 -2.0375 -0.3946
 4177WAT     H217415   3.541   2.544   0.424 -2.6729 -0.2354  2.2682
 4177WAT    EPW17416   3.533   2.620   0.406 -0.1376  0.4632 -0.3773
 4178WAT      O17417   6.256   1.467   5.190 -0.4004 -0.4840 -0.1025
 4178WAT     H117418   6.171   1.482   5.200 -0.4332 -1.2009  0.8317
 4178WAT     H217419   6.271   1.486   5.106 -2.0022 -2.6519 -0.9564
 4178WAT    EPW17420   6.246   1.472   5.179  0.2723  0.0816 -0.1987
 4179WAT      O17421   7.441   5.420   2.430  0.0710 -0.2199 -0.2432
 4179WAT     H117422   7.525   5.399   2.438 -0.2676 -0.9372  1.9844
 4179WAT     H217423   7.423   5.403   2.347  2.3156  0.7326 -0.9950
 4179WAT    EPW17424   7.450   5.415   2.419 -0.1564  0.1133  0.2090
 4180WAT      O17425   7.076   5.491   5.710 -0.6374  0.0450 -0.1229
 4180WAT     H117426   7.111   5.415   5.686 -2.3542 -1.0761  0.8073
 4180WAT     H217427   7.026   5.471   5.779 -1.2561  1.9819  0.0535
 4180WAT    EPW17428   7.074   5.477   5.717 -0.4047 -0.5874  0.2251
 4181WAT      O17429   7.479   4.465   5.766 -0.0487  0.0794 -0.4081
 4181WAT     H117430   7.431   4.393   5.777 -2.2083  1.2647 -1.5740
 4181WAT     H217431   7.422   4.525   5.740  1.9055  1.8950 -0.8223
 4181WAT    EPW17432   7.464   4.463   5.764 -0.0925  0.3628  0.0447
 4182WAT      O17433   3.830   6.628   7.177  0.6610  0.1479 -0.2477
 4182WAT     H117434   3.829   6.549   7.141 -2.7527  0.9403 -2.4395
 4182WAT     H217435   3.855   6.680   7.111  0.7313  1.0737  0.4894
 4182WAT    EPW17436   3.834   6.624   7.162  0.6794 -0.4013  0.7087
 4183WAT      O17437   3.150   5.524   2.798  0.1572  0.3507 -0.3758
 4183WAT     H117438   3.175   5.605   2.778 -2.9320  1.7477  0.6934
 4183WAT     H217439   3.190   5.508   2.874  0.3566  1.1475 -0.3000
 4183WAT    EPW17440   3.159   5.534   2.806  0.0182  0.7539  0.0322
 4184WAT      O17441   0.942   6.183   0.518  0.3133  0.5647  0.0825
 4184WAT     H117442   0.866   6.226   0.520 -0.6938 -1.1098  0.3683
 4184WAT     H217443   0.924   6.108   0.560  1.6110 -0.6771 -1.4484
 4184WAT    EPW17444   0.928   6.178   0.525  0.1059  0.1919 -0.3009
 4185WAT      O17445   3.466   7.017   5.873 -0.1602 -0.7096  0.6131
 4185WAT     H117446   3.422   6.942   5.881 -1.1125 -0.1517  0.7776
 4185WAT     H217447   3.481   7.023   5.787 -1.7623 -0.1837  0.3359
 4185WAT    EPW17448   3.462   7.007   5.862  0.4000  0.1078 -0.1742
 4186WAT      O17449   2.604   4.895   6.647 -0.4703  0.0603 -0.2377
 4186WAT     H117450   2.554   4.829   6.619  0.8966 -0.8508 -0.6434
 4186WAT     H217451   2.674   4.892   6.594  0.0595  1.2299  0.3574
 4186WAT    EPW17452   2.607   4.885   6.635 -0.4170  0.1808  0.7019
 4187WAT      O17453   1.925   7.552   7.409  0.2203  0.8158  0.3751
 4187WAT     H117454   1.922   7.562   7.322 -2.2901 -0.3119  0.2418
 4187WAT     H217455   1.971   7.478   7.419 -0.6514  0.1682 -0.1446
 4187WAT    EPW17456   1.931   7.542   7.397 -0.2371 -0.1967 -0.1736
 4188WAT      O17457   0.137   3.000   3.513 -0.2634 -0.3091  0.0413
 4188WAT     H117458   0.208   2.991   3.563 -0.1521 -1.2369 -0.2642
 4188WAT     H217459   0.091   2.929   3.531 -0.1648 -0.7227 -1.2565
 4188WAT    EPW17460   0.141   2.988   3.523 -0.0740  0.4299  0.1326
 4189WAT      O17461   7.499   7.187   3.956 -0.3995  0.1069  0.5526
 4189WAT     H117462   7.495   7.256   4.009 -1.7614  0.5320 -0.0432
 4189WAT     H217463   7.584   7.180   3.937 -0.2290  1.6716  0.5861
 4189WAT    EPW17464   7.511   7.196   3.961  0.4609  0.1127  0.3111
 4190WAT      O17465   1.952   4.270   2.627 -0.2630  0.0174 -0.6892
 4190WAT     H117466   1.977   4.352   2.644 -1.5973  0.2868  0.0897
 4190WAT     H217467   1.892   4.279   2.565 -1.4323 -0.2122  0.3656
 4190WAT    EPW17468   1.947   4.283   2.620 -0.0024 -0.4196  0.6737
 4191WAT      O17469   6.045   6.046   5.227 -0.6427  0.1392  0.0508
 4191WAT     H117470   6.079   6.114   5.184  0.6678  0.6159  1.7646
 4191WAT     H217471   5.967   6.075   5.254 -0.7023  0.4494 -0.4455
 4191WAT    EPW17472   6.039   6.060   5.224  0.0279  0.4352  0.4672
 4192WAT      O17473   6.324   4.120   4.734 -0.4041 -0.2316 -0.3777
 4192WAT     H117474   6.379   4.175   4.694 -1.4234 -0.0116 -1.5183
 4192WAT     H217475   6.274   4.091   4.669 -2.1066  0.1181  0.7208
 4192WAT    EPW17476   6.325   4.124   4.718 -0.1171  0.1324 -0.2706
 4193WAT      O17477   3.818   0.592   3.400  0.3805  0.4421 -0.1766
 4193WAT     H117478   3.787   0.511   3.393  0.1649  0.3710  1.2342
 4193WAT     H217479   3.747   0.641   3.405  0.5107  0.7112 -0.8512
 4193WAT    EPW17480   3.803   0.587   3.400  0.1617  0.5867  0.2179
 4194WAT      O17481   7.055   3.045   0.978  0.2881  0.2197 -0.4291
 4194WAT     H117482   7.056   3.089   1.053  0.1639  0.4170 -0.5439
 4194WAT     H217483   7.139   3.025   0.965  0.1224 -1.3970  0.6897
 4194WAT    EPW17484   7.067   3.048   0.987  0.4778 -0.3370 -0.0451
 4195WAT      O17485   6.766   1.932   2.943 -0.0891  0.1115  0.2030
 4195WAT     H117486   6.700   1.886   2.911 -1.6036  2.9000 -1.0957
 4195WAT     H217487   6.825   1.872   2.966 -1.5289 -2.3530 -2.0610
 4195WAT    EPW17488   6.765   1.917   2.942 -0.4233 -0.6596  0.4784
 4196WAT      O17489   3.329   1.219   6.835  0.4972 -0.2881 -0.0474
 4196WAT     H117490   3.322   1.175   6.760 -1.7774  0.7029 -0.4995
 4196WAT     H217491   3.342   1.301   6.810 -1.8582  0.3238  0.5030
 4196WAT    EPW17492   3.330   1.225   6.820 -0.5091  0.1122  0.1326
 4197WAT      O17493   7.252   2.556   7.443  0.2423 -0.5246  0.6128
 4197WAT     H117494   7.175   2.594   7.454 -0.2958 -1.3573 -0.0796
 4197WAT     H217495   7.241   2.509   7.369  1.9283  0.6495 -0.4526
 4197WAT    EPW17496   7.239   2.555   7.434 -0.6122 -0.6514  0.4462
 4198WAT      O17497   2.816   1.017   1.896  0.4587 -0.2034  1.0593
 4198WAT     H117498   2.899   1.003   1.871  0.0317  0.0007 -0.5179
 4198WAT     H217499   2.770   0.964   1.845 -0.4602  0.3784  1.2707
 4198WAT    EPW17500   2.822   1.007   1.885  0.1544 -0.2495  0.6042
 4199WAT      O17501   6.178   5.765   6.409 -0.4526  0.0451 -0.2641
 4199WAT     H117502   6.103   5.733   6.379 -0.1496  1.3964 -2.6983
 4199WAT     H217503   6.226   5.776   6.337  1.1923  1.4159  0.9553
 4199WAT    EPW17504   6.174   5.762   6.394  0.4427  0.0874  0.9268
 4200WAT      O17505   5.772   4.532   3.915  0.1278 -0.2243  0.1347
 4200WAT     H117506   5.820   4.479   3.865  1.0076  0.3934  0.3028
 4200WAT     H217507   5.818   4.536   3.989  1.0872  2.2358 -0.5078
 4200WAT    EPW17508   5.786   4.525   3.919 -0.4230  0.2076  0.0566
 4201WAT      O17509   6.211   1.991   5.054 -0.0488  0.1835 -0.3889
 4201WAT     H117510   6.292   1.983   5.084  0.4326  0.6983 -1.4774
 4201WAT     H217511   6.222   2.008   4.969 -1.3118 -0.2494 -0.6634
 4201WAT    EPW17512   6.224   1.992   5.046  0.5190  0.1803 -0.2776
 4202WAT      O17513   1.067   1.321   0.391 -0.1754  0.4548 -0.0920
 4202WAT     H117514   1.059   1.330   0.305  1.2586  0.8608 -0.2082
 4202WAT     H217515   1.023   1.248   0.408 -0.3737  0.3046 -1.1943
 4202WAT    EPW17516   1.060   1.311   0.381  0.2881  0.3565 -0.5775
 4203WAT      O17517   1.295   2.723   7.465  0.1292  1.0219  0.1477
 4203WAT     H117518   1.379   2.714   7.484  0.0656  0.6685  0.2591
 4203WAT     H217519   1.269   2.642   7.447  0.4695  1.3984 -2.6265
 4203WAT    EPW17520   1.304   2.710   7.465  0.6763  0.2155  0.5168
 4204WAT      O17521   4.982   3.648   3.222 -0.0860  0.1145 -0.1835
 4204WAT     H117522   4.964   3.576   3.175 -0.6000  0.4442 -0.5101
 4204WAT     H217523   4.903   3.676   3.246  0.1338  0.3709  0.2480
 4204WAT    EPW17524   4.968   3.642   3.218 -0.4432 -0.3530  0.8339
 4205WAT      O17525   4.515   5.637   1.255 -0.2181 -1.0443  0.2772
 4205WAT     H117526   4.478   5.708   1.291 -1.5035 -0.8623 -1.2971
 4205WAT     H217527   4.544   5.667   1.178  0.6663 -1.8803  0.2700
 4205WAT    EPW17528   4.514   5.652   1.249 -0.0446 -0.5924  0.2808
 4206WAT      O17529   6.537   1.086   5.378 -0.6454  0.1273 -0.2077
 4206WAT     H117530   6.528   1.168   5.349  1.4267  0.4220 -0.1600
 4206WAT     H217531   6.609   1.058   5.338 -0.8699 -1.3978  0.4099
 4206WAT    EPW17532   6.546   1.094   5.368 -0.3333  0.2513  0.8635
 4207WAT      O17533   7.607   7.477   0.511  0.4475  0.6198 -0.3544
 4207WAT     H117534   7.651   7.427   0.455  2.5528  1.8241  0.1297
 4207WAT     H217535   7.626   7.441   0.589  2.7830  2.5743  0.0980
 4207WAT    EPW17536   7.616   7.464   0.514  0.3998  0.3417  0.2325
 4208WAT      O17537   4.416   3.907   6.676  0.1143  0.2255 -0.1743
 4208WAT     H117538   4.378   3.970   6.629 -2.7147 -0.9035  0.4036
 4208WAT     H217539   4.443   3.850   6.616  1.8764  1.4768 -0.6484
 4208WAT    EPW17540   4.414   3.908   6.660 -0.2910 -0.1321  0.4330
 4209WAT      O17541   5.998   0.853   7.344 -0.0040 -0.1787  0.6700
 4209WAT     H117542   5.992   0.939   7.329  0.4381 -0.0775  1.0664
 4209WAT     H217543   6.081   0.842   7.370  0.1334 -0.8244 -0.0034
 4209WAT    EPW17544   6.009   0.864   7.345  0.3394 -0.1982 -0.0299
 4210WAT      O17545   5.269   5.156   4.640 -0.1256 -0.4979 -0.0512
 4210WAT     H117546   5.272   5.087   4.587 -1.1357  0.0778 -0.9098
 4210WAT     H217547   5.183   5.166   4.655 -0.2689  1.9711 -1.9049
 4210WAT    EPW17548   5.256   5.148   4.635 -0.7482 -0.2805  0.2773
 4211WAT      O17549   1.757   1.999   0.763  0.2155  0.7295 -0.1400
 4211WAT     H117550   1.737   2.050   0.695 -0.9261  0.7903  0.2217
 4211WAT     H217551   1.767   1.920   0.728  0.7091  0.9578 -0.5209
 4211WAT    EPW17552   1.755   1.995   0.748  0.7899  0.0084 -0.1180
 4212WAT      O17553   7.552   1.927   0.570 -0.2516 -0.3418  0.1542
 4212WAT     H117554   7.574   2.010   0.556  1.5039 -0.7112  0.4806
 4212WAT     H217555   7.550   1.919   0.657  3.2328 -1.4085  0.2965
 4212WAT    EPW17556   7.555   1.938   0.581 -0.6285  0.0997  0.5078
 4213WAT      O17557   5.453   3.430   7.069  0.4067 -0.3853  0.5219
 4213WAT     H117558   5.538   3.424   7.049  0.9747 -1.5792  2.8354
 4213WAT     H217559   5.430   3.348   7.085 -1.1582 -0.0528  0.1830
 4213WAT    EPW17560   5.462   3.417   7.069  0.5916  0.2265  0.4959
 4214WAT      O17561   6.298   3.822   1.566 -0.1999 -0.0948 -1.0856
 4214WAT     H117562   6.348   3.893   1.574  0.4278 -0.7330  2.2605
 4214WAT     H217563   6.222   3.853   1.537 -0.5456  2.3628  1.9656
 4214WAT    EPW17564   6.294   3.837   1.563  0.0056  0.0787  0.5960
 4215WAT      O17565   5.961   4.710   1.182  0.3041 -0.2665  0.5330
 4215WAT     H117566   5.987   4.774   1.236  0.1008  0.0424  0.2685
 4215WAT     H217567   5.937   4.753   1.110  1.7067 -0.7421 -0.2682
 4215WAT    EPW17568   5.961   4.726   1.180  0.3959  0.0948  1.0380
 4216WAT      O17569   0.599   3.399   3.121  0.6801 -0.0939 -0.2110
 4216WAT     H117570   0.613   3.345   3.054 -1.6861  0.2268 -1.0510
 4216WAT     H217571   0.660   3.375   3.179  1.4881 -1.7751 -1.6492
 4216WAT    EPW17572   0.610   3.387   3.120  0.5980  0.0387  0.8453
 4217WAT      O17573   1.729   0.871   2.806 -0.3937  0.1785  0.3211
 4217WAT     H117574   1.705   0.788   2.791  0.5377 -0.1267  0.4881
 4217WAT     H217575   1.801   0.880   2.759  0.0399  0.6102  1.0549
 4217WAT    EPW17576   1.736   0.860   2.797  0.0750 -0.1760  0.6497
 4218WAT      O17577   2.975   2.505   4.629 -0.9403 -0.3657 -0.2690
 4218WAT     H117578   2.995   2.500   4.714 -0.5111  1.8036 -0.1790
 4218WAT     H217579   3.027   2.446   4.593 -0.6433 -0.8603  0.9170
 4218WAT    EPW17580   2.986   2.496   4.636 -0.0916  0.1574 -0.2084
 4219WAT      O17581   5.691   2.637   7.436 -0.0680  0.1527 -0.5693
 4219WAT     H117582   5.681   2.564   7.482 -2.7220 -0.5527 -2.0461
 4219WAT     H217583   5.698   2.609   7.354 -1.4527  1.5127 -1.2138
 4219WAT    EPW17584   5.690   2.622   7.430  0.0265 -0.5459  0.0510
 4220WAT      O17585   6.961   4.078   5.039 -0.2979 -0.3121 -0.0606
 4220WAT     H117586   6.999   4.135   5.094 -0.0651 -0.2867 -0.2490
 4220WAT     H217587   6.882   4.066   5.075 -0.0378 -0.5331  0.4473
 4220WAT    EPW17588   6.955   4.085   5.052 -1.1702 -0.1767 -0.7330
 4221WAT      O17589   5.701   0.671   5.934 -0.3709  0.7556  0.9102
 4221WAT     H117590   5.647   0.722   5.888 -1.8090 -1.2613  0.2430
 4221WAT     H217591   5.652   0.645   6.001  0.2383  0.0263  1.0875
 4221WAT    EPW17592   5.686   0.675   5.937 -0.3210 -0.5732  0.0268
 4222WAT      O17593   2.339   5.568   1.710  0.1150 -0.0456 -0.9512
 4222WAT     H117594   2.281   5.516   1.671 -0.3543 -0.8146  0.6753
 4222WAT     H217595   2.290   5.626   1.752  0.5200 -0.3321 -0.0613
 4222WAT    EPW17596   2.324   5.569   1.711 -0.6196  0.4934  0.6211
 4223WAT      O17597   6.776   3.442   5.896  0.0474 -0.0501  0.3661
 4223WAT     H117598   6.752   3.523   5.872 -0.1453 -0.3862 -0.6384
 4223WAT     H217599   6.843   3.456   5.951  0.0201  0.7934  0.2031
 4223WAT    EPW17600   6.783   3.456   5.901 -0.5795  0.1044  0.4967
 4224WAT      O17601   6.773   1.087   2.248  0.1928 -0.6721 -0.0250
 4224WAT     H117602   6.812   1.147   2.298 -0.3475  0.3988 -0.8596
 4224WAT     H217603   6.688   1.104   2.259  0.0427 -1.1706 -0.4202
 4224WAT    EPW17604   6.766   1.098   2.257  0.2114  0.1599 -0.5291
 4225WAT      O17605   3.324   4.231   1.486  0.0138  0.6058 -0.2377
 4225WAT     H117606   3.402   4.269   1.493  1.4791 -1.7440 -2.0294
 4225WAT     H217607   3.340   4.160   1.438 -3.4827  0.7205 -1.9386
 4225WAT    EPW17608   3.338   4.226   1.480 -0.8706  0.4649 -0.0477
 4226WAT      O17609   0.667   1.903   5.578  0.2851  0.2997  0.2118
 4226WAT     H117610   0.740   1.855   5.583 -0.4652 -0.7693  1.9765
 4226WAT     H217611   0.611   1.852   5.535  0.5025  1.0803 -1.0572
 4226WAT    EPW17612   0.669   1.889   5.572 -0.0570  0.4554  0.4363
 4227WAT      O17613   1.835   0.127   0.509  0.0697 -0.1963  0.5751
 4227WAT     H117614   1.828   0.126   0.422  1.4471 -1.3081  0.4524
 4227WAT     H217615   1.812   0.046   0.532  2.4015 -0.8018  0.9707
 4227WAT    EPW17616   1.830   0.115   0.499 -0.2617  0.0031 -0.0099
 4228WAT      O17617   7.599   2.552   1.467 -0.2870  0.0253  0.3864
 4228WAT     H117618   7.585   2.482   1.417  0.8935 -0.0530  0.1340
 4228WAT     H217619   7.533   2.605   1.447 -0.5252 -0.5203 -0.3235
 4228WAT    EPW17620   7.587   2.549   1.457 -0.3455  0.2886  1.2398
 4229WAT      O17621   3.260   6.961   6.307  0.3717  0.3342  0.2186
 4229WAT     H117622   3.215   7.008   6.248 -0.9354  0.8855  1.5719
 4229WAT     H217623   3.342   6.985   6.293  0.0545  0.7936 -1.0713
 4229WAT    EPW17624   3.265   6.972   6.296  0.3091 -0.1526  0.4668
 4230WAT      O17625   4.345   7.265   7.041  0.4137  0.1214  0.6343
 4230WAT     H117626   4.267   7.302   7.030 -0.0136 -0.7352  0.7056
 4230WAT     H217627   4.393   7.328   7.078 -0.0064  0.9127 -0.1325
 4230WAT    EPW17628   4.341   7.279   7.045 -0.4121  0.2242  0.9427
 4231WAT      O17629   0.208   1.206   4.980  0.2471 -0.0396 -0.1161
 4231WAT     H117630   0.201   1.131   5.023 -0.8647  0.4591  0.6273
 4231WAT     H217631   0.277   1.245   5.018 -0.1972  0.0230  0.6529
 4231WAT    EPW17632   0.217   1.201   4.992  0.6128 -0.4821 -0.4847
 4232WAT      O17633   5.191   4.611   0.123  0.0494  0.2314  0.2126
 4232WAT     H117634   5.191   4.578   0.042 -0.7739  0.3538  0.1545
 4232WAT     H217635   5.218   4.544   0.172 -1.9434 -0.6990  0.1373
 4232WAT    EPW17636   5.195   4.596   0.118 -0.3860  0.0538  0.6941
 4233WAT      O17637   0.538   2.416   7.528  0.3086  1.0579  0.2523
 4233WAT     H117638   0.528   2.330   7.522 -0.6321  1.0461  1.7039
 4233WAT     H217639   0.556   2.440   7.446 -2.6377 -0.1302 -0.8883
 4233WAT    EPW17640   0.539   2.407   7.515  0.3643 -0.0409  0.2833
 4234WAT      O17641   2.258   3.803   5.823 -0.3311 -0.4576 -0.1886
 4234WAT     H117642   2.325   3.793   5.768  0.0770  0.3238  0.1453
 4234WAT     H217643   2.237   3.721   5.846  1.2201 -0.6912  0.5282
 4234WAT    EPW17644   2.265   3.789   5.818  0.2520  0.1812  0.0699
 4235WAT      O17645   0.794   5.212   1.351  0.7121 -0.0311 -0.3518
 4235WAT     H117646   0.802   5.296   1.326  0.4983  0.0037 -0.3067
 4235WAT     H217647   0.771   5.171   1.277  2.4949 -0.3416 -0.7742
 4235WAT    EPW17648   0.792   5.219   1.336 -0.3417  0.3717 -0.2342
 4236WAT      O17649   1.268   1.148   0.066  0.3567  0.2009 -0.2878
 4236WAT     H117650   1.250   1.233   0.054  1.0431  0.4799  0.5499
 4236WAT     H217651   1.327   1.148   0.131  1.4123 -0.8334 -1.2025
 4236WAT    EPW17652   1.274   1.161   0.074  0.3928 -0.0994 -0.1621
 4237WAT      O17653   0.629   1.754   2.045  0.2370 -0.2052  0.7724
 4237WAT     H117654   0.630   1.719   1.965 -2.9830 -1.7418  1.2488
 4237WAT     H217655   0.707   1.732   2.077  0.1119 -3.2478 -0.5789
 4237WAT    EPW17656   0.641   1.745   2.038 -0.3112  0.0192  0.4377
 4238WAT      O17657   1.771   0.687   5.138  0.1678  0.1495  0.2250
 4238WAT     H117658   1.844   0.684   5.186 -0.1696  0.8220  0.7761
 4238WAT     H217659   1.728   0.615   5.162 -0.5728  1.0934  1.8545
 4238WAT    EPW17660   1.776   0.676   5.148 -0.5710  0.1375 -0.0051
 4239WAT      O17661   6.832   4.070   4.719  0.4467  0.1618 -0.7287
 4239WAT     H117662   6.907   4.025   4.716 -0.2853 -1.2112  0.4480
 4239WAT     H217663   6.774   4.018   4.681 -0.3097  0.3308  0.1527
 4239WAT    EPW17664   6.835   4.056   4.713  0.2504 -0.0291 -0.5517
 4240WAT      O17665   2.411   0.701   3.251 -0.1676  0.5279 -0.3701
 4240WAT     H117666   2.392   0.618   3.268 -0.1149  0.4713 -0.5931
 4240WAT     H217667   2.498   0.703   3.249 -0.0517  1.0514  2.0437
 4240WAT    EPW17668   2.421   0.689   3.253 -0.0475 -0.2128 -0.4592
 4241WAT      O17669   4.874   0.387   5.141 -0.5248  0.1205  0.9453
 4241WAT     H117670   4.871   0.303   5.166  2.0466  0.3839  2.5346
 4241WAT     H217671   4.938   0.389   5.083 -1.5312  0.8022 -0.1923
 4241WAT    EPW17672   4.883   0.375   5.136 -0.6711  0.5290 -0.0483
 4242WAT      O17673   0.073   3.700   7.514  0.0009 -0.3341  0.2360
 4242WAT     H117674   0.067   3.633   7.570 -0.5982 -1.6142 -1.2512
 4242WAT     H217675  -0.010   3.720   7.498  0.0810 -1.1134 -1.3832
 4242WAT    EPW17676   0.060   3.693   7.520  0.0344  0.1922  0.3648
 4243WAT      O17677   2.695   2.434   7.232 -0.1712  0.5208  0.7631
 4243WAT     H117678   2.662   2.371   7.181 -2.8839  0.5526  2.2594
 4243WAT     H217679   2.661   2.416   7.311 -2.1380  4.4082  1.0494
 4243WAT    EPW17680   2.685   2.422   7.236  0.1176  0.3073 -0.2468
 4244WAT      O17681   5.956   4.032   7.336 -0.0201  0.3865  0.0805
 4244WAT     H117682   5.988   4.111   7.357  0.1372  0.4985 -0.5486
 4244WAT     H217683   5.952   4.034   7.248  0.7825 -0.6113  0.0055
 4244WAT    EPW17684   5.960   4.044   7.326 -0.3184 -0.3463 -0.3126
 4245WAT      O17685   1.645   3.638   7.387 -0.0633  0.0802  0.2332
 4245WAT     H117686   1.634   3.637   7.474 -0.2834  1.2242  0.2434
 4245WAT     H217687   1.580   3.588   7.358  1.3999 -2.2648  0.8118
 4245WAT    EPW17688   1.634   3.631   7.396  0.2249  0.0257  0.1806
 4246WAT      O17689   6.980   6.695   1.337  0.1097 -0.4427 -0.5373
 4246WAT     H117690   7.003   6.779   1.330  1.7134 -0.8524 -0.7784
 4246WAT     H217691   6.893   6.697   1.340  0.1356  1.2540 -0.0139
 4246WAT    EPW17692   6.971   6.708   1.336 -0.2687 -0.3811  0.2077
 4247WAT      O17693   3.315   5.917   1.237  0.8118  0.6016  0.2809
 4247WAT     H117694   3.400   5.899   1.235  0.4561 -1.3261  0.5846
 4247WAT     H217695   3.299   5.928   1.322  0.7755  1.1798  0.2056
 4247WAT    EPW17696   3.325   5.916   1.249 -0.3688 -0.0345 -0.0523
 4248WAT      O17697   2.308   4.518   7.538  0.1264  0.5058 -0.2594
 4248WAT     H117698   2.385   4.546   7.568  0.4354 -0.8833  0.3712
 4248WAT     H217699   2.322   4.432   7.526 -2.2034 -0.6036  3.2349
 4248WAT    EPW17700   2.322   4.509   7.541 -0.4114  0.1491 -0.3517
 4249WAT      O17701   2.941   4.649   3.351 -0.4788 -0.1095 -0.0579
 4249WAT     H117702   2.912   4.673   3.430  1.5078 -0.8110  0.9521
 4249WAT     H217703   2.872   4.662   3.300 -2.0186 -0.1197  1.8639
 4249WAT    EPW17704   2.927   4.655   3.355  0.0893 -1.0105  0.1382
 4250WAT      O17705   7.348   5.501   2.987 -0.4462 -0.8071  0.8423
 4250WAT     H117706   7.406   5.556   3.021  1.2592 -2.1127  0.2167
 4250WAT     H217707   7.314   5.461   3.057 -0.6507 -0.0031  1.2172
 4250WAT    EPW17708   7.351   5.503   3.002 -0.6239 -0.6821 -0.5002
 4251WAT      O17709   2.187   3.537   5.566  0.1124  0.8497 -0.1382
 4251WAT     H117710   2.112   3.582   5.569 -0.8423 -0.7052  0.7485
 4251WAT     H217711   2.213   3.546   5.483 -0.6879  1.9934 -0.2906
 4251WAT    EPW17712   2.180   3.545   5.554  0.2933 -0.5405  0.4680
 4252WAT      O17713   3.173   6.152   7.199 -0.5341  0.3696 -0.3900
 4252WAT     H117714   3.248   6.113   7.181 -0.7664  0.8313 -2.6229
 4252WAT     H217715   3.156   6.199   7.127 -1.9386  1.8964  0.8486
 4252WAT    EPW17716   3.182   6.153   7.186 -0.1295  0.0341  0.5039
 4253WAT      O17717   5.135   2.973   6.792  0.3013  0.0893 -0.0794
 4253WAT     H117718   5.152   2.991   6.876  1.2493 -0.8826 -0.0350
 4253WAT     H217719   5.176   3.036   6.749  1.3122 -0.3776  0.1554
 4253WAT    EPW17720   5.144   2.985   6.798 -0.1079 -0.2168  0.2969
 4254WAT      O17721   6.746   0.985   3.968  0.1591  0.0638  0.2195
 4254WAT     H117722   6.732   0.912   4.013 -2.0294 -0.3888 -1.0382
 4254WAT     H217723   6.751   1.047   4.030 -0.5062 -0.8196  1.1863
 4254WAT    EPW17724   6.745   0.984   3.984 -0.2118 -0.0169  0.0234
 4255WAT      O17725   3.899   4.135   6.172 -0.4236 -0.0318  0.1580
 4255WAT     H117726   3.925   4.218   6.174 -0.4843 -0.0256  1.1015
 4255WAT     H217727   3.933   4.104   6.097 -0.7114  0.9343 -0.3886
 4255WAT    EPW17728   3.908   4.143   6.161 -0.4822  0.1714 -0.2159
 4256WAT      O17729   5.078   2.360   7.497  0.6463 -0.3683 -0.2992
 4256WAT     H117730   5.144   2.417   7.495  0.8747 -0.6201 -0.0388
 4256WAT     H217731   5.111   2.292   7.540 -0.1809 -0.0167  0.9276
 4256WAT    EPW17732   5.093   2.358   7.503  0.3333  0.6466  0.1980
 4257WAT      O17733   0.123   3.818   5.700 -0.4679 -0.1510 -0.1114
 4257WAT     H117734   0.135   3.768   5.771 -1.4218  0.1583  0.2826
 4257WAT     H217735   0.130   3.899   5.730  0.0594 -0.0265 -0.5593
 4257WAT    EPW17736   0.126   3.822   5.715 -0.4429  1.3526 -0.0055
 4258WAT      O17737   4.725   2.712   1.372 -0.2909  0.3864 -0.3847
 4258WAT     H117738   4.654   2.744   1.412 -0.0824 -1.0512  1.2488
 4258WAT     H217739   4.698   2.636   1.340  0.0621  0.6560 -1.3605
 4258WAT    EPW17740   4.710   2.706   1.373  0.3040 -0.4259  0.2357
 4259WAT      O17741   4.355   6.100   0.407 -0.0261  0.1339 -0.2262
 4259WAT     H117742   4.346   6.177   0.367  0.4850 -0.2194 -1.0674
 4259WAT     H217743   4.279   6.088   0.447 -0.2456  0.9017 -0.4032
 4259WAT    EPW17744   4.343   6.110   0.407 -0.1963  0.2852 -0.5692
 4260WAT      O17745   3.320   6.012   2.178 -0.1091  0.0370  0.1141
 4260WAT     H117746   3.250   5.984   2.134 -1.1482  1.1308  0.9974
 4260WAT     H217747   3.344   6.084   2.135  0.7193 -0.5245 -0.3947
 4260WAT    EPW17748   3.313   6.018   2.166  0.0030 -0.2129 -0.5426
 4261WAT      O17749   4.651   0.689   4.530  0.4610 -0.0947 -0.6297
 4261WAT     H117750   4.583   0.638   4.511  1.1458 -1.8554  1.2035
 4261WAT     H217751   4.705   0.678   4.463 -0.0027 -0.6587 -0.9146
 4261WAT    EPW17752   4.649   0.680   4.518  0.2903  0.7149  0.2198
 4262WAT      O17753   6.241   1.414   3.710 -0.1748  0.4734 -0.4103
 4262WAT     H117754   6.165   1.381   3.738 -0.7200  0.6885 -1.5411
 4262WAT     H217755   6.272   1.351   3.657 -0.8172  1.3749 -1.9248
 4262WAT    EPW17756   6.234   1.399   3.706 -0.9162  0.4736  0.0910
 4263WAT      O17757   7.095   3.468   7.580  0.0577  0.3655  0.3357
 4263WAT     H117758   7.074   3.542   7.620  0.3680  0.3237  0.5850
 4263WAT     H217759   7.020   3.423   7.578 -0.0015  0.4416  0.7160
 4263WAT    EPW17760   7.081   3.472   7.586  0.1154 -0.3760 -0.2250
 4264WAT      O17761   2.596   3.711   2.434 -0.2991  0.3069  0.3741
 4264WAT     H117762   2.538   3.770   2.406  0.3062  1.7159  1.9119
 4264WAT     H217763   2.655   3.759   2.477  0.0878 -1.4463  1.9340
 4264WAT    EPW17764   2.596   3.727   2.436 -1.1358  0.0234  0.3297
 4265WAT      O17765   3.291   3.688   0.429 -0.0298  0.3890  0.0876
 4265WAT     H117766   3.213   3.682   0.392  0.6487  0.7234 -1.4975
 4265WAT     H217767   3.278   3.740   0.498 -1.3317 -0.1817  0.2794
 4265WAT    EPW17768   3.278   3.695   0.433  0.3081  0.1031  0.5592
 4266WAT      O17769   6.482   5.218   4.293 -0.4498 -0.0492  0.2753
 4266WAT     H117770   6.523   5.278   4.244 -1.0081 -0.3781 -0.6060
 4266WAT     H217771   6.547   5.176   4.333  0.1946 -1.4329 -2.0925
 4266WAT    EPW17772   6.497   5.221   4.292 -0.5215 -0.4129 -0.3828
 4267WAT      O17773   7.481   0.506   4.380  0.3552  0.1310 -0.1248
 4267WAT     H117774   7.423   0.475   4.438  0.8122  0.3918  0.4917
 4267WAT     H217775   7.528   0.562   4.428  2.4595 -1.5707 -0.0492
 4267WAT    EPW17776   7.479   0.510   4.396  1.2047 -0.3887 -0.5248
 4268WAT      O17777   5.672   2.888   5.968 -0.9540 -0.2713  0.6833
 4268WAT     H117778   5.708   2.847   6.036  0.5184  3.1306  2.1912
 4268WAT     H217779   5.606   2.933   6.004 -1.9744 -0.5977 -0.7022
 4268WAT    EPW17780   5.668   2.889   5.983 -0.3091 -0.3377 -0.3940
 4269WAT      O17781   6.874   4.305   1.189  0.3136 -0.2198 -0.3139
 4269WAT     H117782   6.804   4.291   1.138  0.8125 -1.0473 -0.7901
 4269WAT     H217783   6.841   4.306   1.270 -0.5339  1.3866 -0.6416
 4269WAT    EPW17784   6.859   4.303   1.193 -0.9580  0.6723 -0.1849
 4270WAT      O17785   2.708   3.747   6.675 -0.0318 -0.6654 -0.2798
 4270WAT     H117786   2.743   3.725   6.598  0.4350 -0.6242 -0.0863
 4270WAT     H217787   2.628   3.712   6.672 -0.5133  0.4593 -1.3195
 4270WAT    EPW17788   2.701   3.738   6.663  0.1918 -0.0949 -0.5028
 4271WAT      O17789   7.489   4.101   3.063 -0.0301 -0.6517 -0.1744
 4271WAT     H117790   7.509   4.018   3.081 -2.4311 -1.5134 -1.1053
 4271WAT     H217791   7.522   4.113   2.983  0.5805 -0.5784  0.0795
 4271WAT    EPW17792   7.497   4.091   3.054  0.0054  0.1598 -0.0687
 4272WAT      O17793   2.445   0.524   6.717  0.0280  0.8021  0.7335
 4272WAT     H117794   2.366   0.516   6.681 -0.1434 -1.0287  1.4387
 4272WAT     H217795   2.433   0.498   6.799  1.5305 -0.3666  0.6260
 4272WAT    EPW17796   2.432   0.519   6.724 -0.5867 -0.1254 -0.1679
 4273WAT      O17797   4.295   4.349   6.321  0.2174 -0.1079  0.2891
 4273WAT     H117798   4.223   4.382   6.359  0.1045  0.4837 -0.4070
 4273WAT     H217799   4.263   4.307   6.252  0.6147  1.3703 -0.8473
 4273WAT    EPW17800   4.279   4.348   6.316  0.8133 -0.1450  0.5344
 4274WAT      O17801   0.536   6.116   1.141  0.6426 -0.2762  0.4340
 4274WAT     H117802   0.477   6.095   1.080 -0.6357 -0.7365  1.7678
 4274WAT     H217803   0.492   6.166   1.196  2.2029  1.4378  0.2192
 4274WAT    EPW17804   0.521   6.120   1.140 -0.0005  0.4852 -0.2625
 4275WAT      O17805   6.944   4.296   5.781 -0.1502 -0.2654  0.0818
 4275WAT     H117806   6.962   4.314   5.697 -0.2380  0.3065  0.1798
 4275WAT     H217807   6.963   4.371   5.822  2.9762 -1.4149  1.0734
 4275WAT    EPW17808   6.950   4.310   5.774  0.3026 -0.4027 -0.5553
 4276WAT      O17809   3.702   2.030   5.459  0.5261  0.1150 -0.4012
 4276WAT     H117810   3.636   2.068   5.501  1.3261 -0.0748  1.0884
 4276WAT     H217811   3.773   2.068   5.493  1.2428 -0.8708 -0.7393
 4276WAT    EPW17812   3.703   2.041   5.470 -0.1131 -0.8113  0.0250
 4277WAT      O17813   5.251   5.435   0.344 -0.2528  0.4005  0.6100
 4277WAT     H117814   5.176   5.478   0.329  0.5016  0.9409 -2.0106
 4277WAT     H217815   5.302   5.495   0.380 -0.9088  0.1089  2.1298
 4277WAT    EPW17816   5.247   5.450   0.347 -0.3872 -0.2977  0.1563
 4278WAT      O17817   3.622   5.424   6.746 -0.1960 -0.1404  0.7582
 4278WAT     H117818   3.586   5.449   6.822  0.4734  0.1196  1.0036
 4278WAT     H217819   3.625   5.498   6.700  4.6146  1.2348  2.6076
 4278WAT    EPW17820   3.617   5.439   6.750  0.0076  0.0567  0.3388
 4279WAT      O17821   7.232   3.478   3.938  0.0027 -0.2097  0.1156
 4279WAT     H117822   7.271   3.503   4.012  0.3904 -0.9260  0.1664
 4279WAT     H217823   7.160   3.527   3.935  0.7850  0.9698  0.1387
 4279WAT    EPW17824   7.227   3.489   3.949 -0.1961  0.2731 -0.1553
 4280WAT      O17825   5.200   7.318   7.129  0.5680 -0.5376 -0.3046
 4280WAT     H117826   5.176   7.330   7.046 -1.1818 -1.7196 -0.0419
 4280WAT     H217827   5.181   7.394   7.167  0.7006 -0.2257 -0.8552
 4280WAT    EPW17828   5.193   7.331   7.122 -0.1350 -0.4152  0.5331
 4281WAT      O17829   3.704   5.780   4.592 -0.4450  0.0811 -0.4006
 4281WAT     H117830   3.733   5.703   4.621  0.4540  0.3411 -0.5862
 4281WAT     H217831   3.653   5.758   4.524 -0.6986 -0.3807 -0.0652
 4281WAT    EPW17832   3.700   5.765   4.586  0.6526  0.1239  0.6209
 4282WAT      O17833   6.244   2.683   4.348 -0.0916  0.4685 -0.5854
 4282WAT     H117834   6.294   2.734   4.398 -1.2058  0.5627  0.4982
 4282WAT     H217835   6.241   2.726   4.272  0.6709  0.9517 -0.3539
 4282WAT    EPW17836   6.251   2.697   4.344  0.0356  0.1258  0.3353
 4283WAT      O17837   4.235   4.209   4.142 -0.0911 -0.0664 -0.0313
 4283WAT     H117838   4.199   4.267   4.196  0.3707 -0.2329  0.4623
 4283WAT     H217839   4.284   4.160   4.194 -0.7142 -1.1062 -0.3979
 4283WAT    EPW17840   4.237   4.211   4.158 -1.1634 -0.2279 -0.0996
 4284WAT      O17841   5.738   0.495   7.546 -0.1421 -0.5148 -0.0106
 4284WAT     H117842   5.789   0.565   7.547  0.2306 -0.7777 -0.3012
 4284WAT     H217843   5.791   0.430   7.571  0.1781 -1.1267 -2.0933
 4284WAT    EPW17844   5.753   0.496   7.550  0.5510  0.0582 -0.3493
 4285WAT      O17845   3.606   3.914   0.709 -0.2802  0.2476  0.3288
 4285WAT     H117846   3.550   3.965   0.666 -0.9540  1.1057  2.0964
 4285WAT     H217847   3.599   3.941   0.792 -0.3268 -2.4420  1.3058
 4285WAT    EPW17848   3.597   3.926   0.715 -0.3503 -0.5654 -0.0537
 4286WAT      O17849   2.682   3.129   4.980  0.1073 -0.1774  0.7323
 4286WAT     H117850   2.597   3.118   4.994 -0.1172  0.0087 -0.3638
 4286WAT     H217851   2.712   3.048   4.970 -0.3789 -0.1737 -1.0995
 4286WAT    EPW17852   2.674   3.115   4.980 -0.2194  0.5756  0.4310
 4287WAT      O17853   7.345   7.491   4.798  0.1692  0.2593 -0.0160
 4287WAT     H117854   7.411   7.501   4.741  0.5547 -0.5938  0.2668
 4287WAT     H217855   7.386   7.478   4.874 -0.3385  0.7058  0.3412
 4287WAT    EPW17856   7.361   7.491   4.800  0.4696 -0.5089  0.0208
 4288WAT      O17857   2.305   6.072   6.200  0.0820  0.0576  0.0344
 4288WAT     H117858   2.341   6.041   6.127 -1.3950  1.2012 -1.2436
 4288WAT     H217859   2.337   6.153   6.207 -1.5111  0.8190 -0.7124
 4288WAT    EPW17860   2.315   6.079   6.190  0.0713 -0.0051 -0.0404
 4289WAT      O17861   4.956   4.656   2.658  0.3610  0.1423  0.4597
 4289WAT     H117862   4.916   4.733   2.647 -0.2918 -0.3127 -0.3734
 4289WAT     H217863   5.027   4.677   2.704  0.7158  1.4015 -0.6029
 4289WAT    EPW17864   4.960   4.671   2.663 -0.2515 -0.6633 -0.4198
 4290WAT      O17865   4.425   6.354   7.346  0.2652 -0.1495 -0.4537
 4290WAT     H117866   4.415   6.343   7.432  0.9957 -1.2276 -0.4861
 4290WAT     H217867   4.345   6.375   7.318  0.0303  0.2562  0.4849
 4290WAT    EPW17868   4.411   6.356   7.354  0.6177  0.1171  0.2186
 4291WAT      O17869   2.023   4.814   0.850 -0.1032  0.2536  0.2448
 4291WAT     H117870   1.949   4.818   0.803  0.0328  0.5593  0.0593
 4291WAT     H217871   2.072   4.878   0.818  0.2481  0.0513  0.3686
 4291WAT    EPW17872   2.019   4.824   0.838  0.5821 -0.3388 -0.4269
 4292WAT      O17873   2.229   2.969   6.364  0.1052  0.0326  0.4827
 4292WAT     H117874   2.206   3.051   6.383 -0.3847 -0.5162  2.5331
 4292WAT     H217875   2.314   2.974   6.346 -0.0164  1.0411  0.1523
 4292WAT    EPW17876   2.238   2.982   6.364 -0.1150 -0.0480 -0.3450
 4293WAT      O17877   1.229   0.346   2.363 -0.5179 -0.1592 -0.2618
 4293WAT     H117878   1.184   0.283   2.322 -1.6554  0.0441  0.6129
 4293WAT     H217879   1.170   0.410   2.373 -0.0677  0.0878  0.9895
 4293WAT    EPW17880   1.214   0.346   2.358  0.3762  0.1211  0.5791
 4294WAT      O17881   3.283   3.369   3.050 -0.2211  0.4282 -0.1774
 4294WAT     H117882   3.334   3.417   3.102 -0.2084  1.0921 -0.7791
 4294WAT     H217883   3.207   3.365   3.093 -0.2901  1.1862 -0.2221
 4294WAT    EPW17884   3.279   3.375   3.064  0.3561 -0.5634  0.1086
 4295WAT      O17885   7.019   4.872   5.194  0.0814 -0.4933  0.8949
 4295WAT     H117886   7.098   4.846   5.169 -0.1230 -0.6430  0.3939
 4295WAT     H217887   6.966   4.809   5.166 -0.2357 -0.3056  1.0605
 4295WAT    EPW17888   7.023   4.859   5.186 -0.1762  0.7957 -0.0007
 4296WAT      O17889   5.032   3.888   7.205  0.1291  0.3907 -0.5344
 4296WAT     H117890   5.024   3.908   7.121 -0.2995 -0.6888 -0.7659
 4296WAT     H217891   5.004   3.960   7.246  0.6070  1.0253 -1.2952
 4296WAT    EPW17892   5.027   3.902   7.199  0.0142  0.2840  0.5028
 4297WAT      O17893   1.666   3.774   6.985  0.1657 -0.3374 -0.4703
 4297WAT     H117894   1.591   3.788   7.027  0.2054  0.5443 -0.6607
 4297WAT     H217895   1.643   3.719   6.921 -0.1199 -0.8152  0.0337
 4297WAT    EPW17896   1.651   3.768   6.981 -0.2064 -0.0988 -0.3566
 4298WAT      O17897   6.400   5.354   0.286 -0.2901  0.5188 -0.2610
 4298WAT     H117898   6.422   5.278   0.249  0.7484  0.9497 -0.5513
 4298WAT     H217899   6.361   5.330   0.360 -0.3808 -0.3056 -0.5656
 4298WAT    EPW17900   6.397   5.339   0.292 -0.0200 -0.1584 -0.1240
 4299WAT      O17901   7.133   1.652   6.982  0.2844  0.0847  0.2984
 4299WAT     H117902   7.205   1.624   7.023  1.5220  2.0328 -0.4111
 4299WAT     H217903   7.108   1.720   7.029  0.1177  0.6707 -0.6087
 4299WAT    EPW17904   7.140   1.658   6.995  0.1117 -0.3584  0.7393
 4300WAT      O17905   3.728   4.398   0.143  0.0587 -0.4205 -0.8360
 4300WAT     H117906   3.707   4.463   0.197 -0.9248 -2.1462  0.9679
 4300WAT     H217907   3.805   4.370   0.172  0.8399  0.3764 -2.0735
 4300WAT    EPW17908   3.736   4.403   0.155 -0.1561  0.6463 -0.0749
 4301WAT      O17909   2.633   1.757   4.006 -0.7931  0.4318  0.6564
 4301WAT     H117910   2.713   1.786   4.024 -0.6140  0.6819 -0.4521
 4301WAT     H217911   2.614   1.795   3.930 -1.5978 -0.3516  0.4413
 4301WAT    EPW17912   2.642   1.767   3.997 -0.3302  0.2253 -0.1741
 4302WAT      O17913   3.912   6.359   0.008 -0.5354 -0.2981 -0.2996
 4302WAT     H117914   3.991   6.371  -0.026 -0.7475  2.5681 -0.0145
 4302WAT     H217915   3.929   6.333   0.090  0.0951 -0.5377 -0.5006
 4302WAT    EPW17916   3.926   6.357   0.015  0.5166 -0.2622 -0.1203
 4303WAT      O17917   6.289   1.771   6.181  0.0120 -0.4569 -0.0921
 4303WAT     H117918   6.259   1.703   6.226 -1.6242  1.1161  1.3783
 4303WAT     H217919   6.354   1.802   6.231 -0.9013  0.4862  0.5481
 4303WAT    EPW17920   6.294   1.766   6.195 -0.0617  0.2383 -0.3470
 4304WAT      O17921   4.515   7.070   7.267 -0.6172  0.2939 -0.4140
 4304WAT     H117922   4.471   7.128   7.219  0.6509 -0.1865 -2.2819
 4304WAT     H217923   4.557   7.022   7.207  0.8093 -0.5661  1.1887
 4304WAT    EPW17924   4.515   7.071   7.251  0.0278  0.0551  0.2669
 4305WAT      O17925   3.798   6.044   4.645 -0.4255  0.3121  0.1297
 4305WAT     H117926   3.794   5.961   4.622 -2.4384 -0.2988  2.2714
 4305WAT     H217927   3.883   6.062   4.642 -0.0162 -1.5802 -1.0726
 4305WAT    EPW17928   3.810   6.035   4.641 -0.3633  0.4183  0.2538
 4306WAT      O17929   5.441   6.419   6.879 -0.2040  0.3059  0.0205
 4306WAT     H117930   5.510   6.415   6.826 -0.3198  0.1985 -0.1205
 4306WAT     H217931   5.437   6.504   6.899  1.7139 -0.0202  2.3379
 4306WAT    EPW17932   5.451   6.431   6.874  0.0787 -0.1000  0.4268
 4307WAT      O17933   4.308   6.692   6.882 -0.1535 -0.9660  0.4768
 4307WAT     H117934   4.378   6.642   6.874  1.5865  1.2139  1.0373
 4307WAT     H217935   4.311   6.718   6.966 -1.0721 -0.0625  0.2560
 4307WAT    EPW17936   4.319   6.688   6.893 -0.4108 -0.1992 -0.2102
 4308WAT      O17937   4.915   7.122   2.945  0.0693  0.6647 -0.0694
 4308WAT     H117938   4.865   7.147   3.012  0.8500  1.0301  0.3938
 4308WAT     H217939   4.892   7.177   2.881 -0.7267  0.2702 -0.1377
 4308WAT    EPW17940   4.904   7.134   2.946  0.5346  0.2394 -0.4530
 4309WAT      O17941   2.534   4.366   1.215  0.3655 -0.3870 -0.7922
 4309WAT     H117942   2.591   4.301   1.215  1.4713  0.5508  0.0318
 4309WAT     H217943   2.551   4.409   1.289 -1.3000  0.0162 -0.5994
 4309WAT    EPW17944   2.545   4.363   1.226  1.0588  0.0627  0.0857
 4310WAT      O17945   7.477   5.929   5.868  0.2605 -0.5879 -0.1150
 4310WAT     H117946   7.443   6.005   5.840  0.6467 -0.9815 -1.7867
 4310WAT     H217947   7.477   5.937   5.954 -0.4318  1.0046 -0.2234
 4310WAT    EPW17948   7.472   5.941   5.876 -0.1928 -0.2972 -0.4576
 4311WAT      O17949   2.852   1.308   2.404 -0.4717 -0.3715  0.5249
 4311WAT     H117950   2.817   1.355   2.469  0.7882  0.8802  0.3370
 4311WAT     H217951   2.931   1.288   2.434 -0.1640 -0.4374 -0.3173
 4311WAT    EPW17952   2.858   1.312   2.418 -0.5112 -0.1423 -0.2264
 4312WAT      O17953   1.367   5.310   0.497 -0.2779 -0.8422 -0.1498
 4312WAT     H117954   1.404   5.362   0.438 -0.1340  0.1565  0.8005
 4312WAT     H217955   1.435   5.280   0.544 -0.3807 -1.7138 -0.5272
 4312WAT    EPW17956   1.383   5.313   0.495 -0.2085 -0.1158  0.3005
 4313WAT      O17957   0.594   2.457   4.083 -0.0245 -0.2305  0.0224
 4313WAT     H117958   0.575   2.542   4.079 -0.5139 -0.2532  1.2725
 4313WAT     H217959   0.679   2.453   4.066  0.2504  0.6461  1.1234
 4313WAT    EPW17960   0.603   2.469   4.080  0.6179 -0.4333  0.2585
 4314WAT      O17961   1.157   5.107   6.601  0.3558 -0.0457 -0.3959
 4314WAT     H117962   1.105   5.079   6.665  2.4177  1.2528  2.0165
 4314WAT     H217963   1.205   5.037   6.582  0.3195 -0.2084  0.1035
 4314WAT    EPW17964   1.157   5.092   6.608  0.9041  0.5567 -0.4289
 4315WAT      O17965   3.741   4.725   6.680  0.2346 -0.0799 -0.0960
 4315WAT     H117966   3.733   4.640   6.665  3.9792 -0.3933 -1.2456
 4315WAT     H217967   3.678   4.760   6.630 -0.7953 -2.1093 -0.3198
 4315WAT    EPW17968   3.730   4.718   6.670 -0.9308  0.0712 -0.0314
 4316WAT      O17969   6.865   0.686   6.991 -0.0626 -0.3557  0.3469
 4316WAT     H117970   6.844   0.644   7.064 -2.5220 -1.5798 -0.9211
 4316WAT     H217971   6.795   0.675   6.940  1.3069  0.8809 -2.0109
 4316WAT    EPW17972   6.852   0.678   6.994 -0.2400 -0.1221 -0.0572
 4317WAT      O17973   4.309   1.772   6.208  0.7313  0.1319  0.1126
 4317WAT     H117974   4.237   1.736   6.176  0.2358 -0.9096  2.1872
 4317WAT     H217975   4.318   1.846   6.162 -1.2009 -0.1106 -0.7307
 4317WAT    EPW17976   4.300   1.778   6.197 -0.7216  0.0849  0.7411
 4318WAT      O17977   2.407   5.268   2.727  0.3074 -0.1958  0.2608
 4318WAT     H117978   2.487   5.269   2.693 -0.2965  0.1183 -1.2108
 4318WAT     H217979   2.368   5.338   2.693 -0.4244 -0.0013  1.4239
 4318WAT    EPW17980   2.413   5.278   2.717 -0.9326 -0.4646 -0.8027
 4319WAT      O17981   5.837   3.796   4.816  0.1891 -0.6305 -0.0459
 4319WAT     H117982   5.775   3.857   4.825  0.4986 -0.3065 -0.0718
 4319WAT     H217983   5.907   3.831   4.856  1.5538  0.7891 -3.3197
 4319WAT    EPW17984   5.838   3.810   4.823  0.0789 -0.0585 -0.3487
 4320WAT      O17985   5.764   5.072   7.116  0.2674  0.7901  0.6005
 4320WAT     H117986   5.812   5.071   7.189  1.6077 -1.1364 -0.2226
 4320WAT     H217987   5.808   5.125   7.063  0.1950  0.8850  0.6353
 4320WAT    EPW17988   5.777   5.080   7.119 -0.2931 -0.6745  0.3200
 4321WAT      O17989   0.348   4.996   5.805  0.1404 -0.3893 -0.3877
 4321WAT     H117990   0.273   5.006   5.761 -0.1091 -0.7644 -0.0581
 4321WAT     H217991   0.409   5.017   5.747 -0.1971 -0.6291 -0.8389
 4321WAT    EPW17992   0.346   5.000   5.790  1.0493  0.4463  0.1685
 4322WAT      O17993   5.041   7.518   6.464 -0.3127  0.4436 -0.1034
 4322WAT     H117994   4.997   7.592   6.449 -0.7955  0.1796 -0.0108
 4322WAT     H217995   5.056   7.521   6.550 -2.0821 -0.4982  0.2857
 4322WAT    EPW17996   5.037   7.529   6.474 -0.7249 -0.2236  0.1499
 4323WAT      O17997   1.060   1.390   5.410  0.1052 -0.0297 -0.3208
 4323WAT     H117998   1.017   1.427   5.476  0.4539 -1.0165  0.4784
 4323WAT     H217999   1.054   1.305   5.426  1.2199 -0.2437 -0.9021
 4323WAT    EPW18000   1.053   1.383   5.422  0.1210 -0.6356 -0.1236
 4324WAT      O18001   0.464   2.188   3.031  0.3594  0.5773  0.0535
 4324WAT     H118002   0.448   2.102   3.035  2.7944  0.0079 -0.6246
 4324WAT     H218003   0.511   2.197   2.958 -0.1034  2.5585 -0.0478
 4324WAT    EPW18004   0.468   2.176   3.021 -0.2544 -0.3107  0.1562
 4325WAT      O18005   2.532   0.575   4.316 -0.4199  0.1993 -0.6378
 4325WAT     H118006   2.595   0.618   4.359 -1.4291 -0.0573  1.1862
 4325WAT     H218007   2.573   0.504   4.285  0.2408  0.1282  0.3606
 4325WAT    EPW18008   2.548   0.571   4.318 -0.1964  0.2675 -1.1468
 4326WAT      O18009   3.237   0.739   3.000 -0.1577 -0.0220  0.0148
 4326WAT     H118010   3.304   0.694   2.968 -0.5167  0.6440 -1.8085
 4326WAT     H218011   3.230   0.807   2.946 -0.7990  1.2432  1.5884
 4326WAT    EPW18012   3.246   0.743   2.988  0.0169 -0.7617  0.0745
 4327WAT      O18013   7.096   2.690   1.997  0.1785  0.1330  0.0982
 4327WAT     H118014   7.144   2.731   2.057 -0.0181 -0.2592  0.5345
 4327WAT     H218015   7.014   2.713   2.017  0.0991 -0.1345  0.0921
 4327WAT    EPW18016   7.091   2.699   2.009 -0.1807  0.4168  0.4216
 4328WAT      O18017   0.169   4.259   4.855 -0.1236  0.0369 -0.1230
 4328WAT     H118018   0.250   4.290   4.863  0.2889 -1.1635  0.6059
 4328WAT     H218019   0.134   4.274   4.933 -0.0943 -0.8246  0.0591
 4328WAT    EPW18020   0.176   4.266   4.867 -0.2265 -0.0189  0.3762
 4329WAT      O18021   2.939   5.914   2.973  0.4459  0.2751  0.6499
 4329WAT     H118022   3.018   5.906   2.938  0.7746 -1.5311  1.6465
 4329WAT     H218023   2.887   5.928   2.905  1.1533 -2.3100 -0.5367
 4329WAT    EPW18024   2.943   5.915   2.958  0.3885 -0.1497  0.3105
 4330WAT      O18025   6.407   0.253   2.181 -0.4302  0.3576  0.3852
 4330WAT     H118026   6.376   0.253   2.100 -0.5438  1.8317  0.4027
 4330WAT     H218027   6.342   0.219   2.228 -1.3556  1.7311  0.1618
 4330WAT    EPW18028   6.393   0.248   2.176 -0.6518 -0.1828 -0.2059
 4331WAT      O18029   3.664   0.368   2.287 -0.2578  0.1617  0.2345
 4331WAT     H118030   3.715   0.310   2.328 -0.6910 -0.3159  0.1085
 4331WAT     H218031   3.714   0.439   2.282  0.1164 -0.0535  0.8041
 4331WAT    EPW18032   3.679   0.370   2.292  0.4767 -0.1851 -0.4500
 4332WAT      O18033   2.426   4.591   2.191 -0.3901 -0.1122  0.1224
 4332WAT     H118034   2.479   4.525   2.211  0.1664  0.0184 -0.8833
 4332WAT     H218035   2.420   4.635   2.267 -0.3920 -1.0368  0.6734
 4332WAT    EPW18036   2.433   4.588   2.205  0.2495  0.0817  0.0763
 4333WAT      O18037   4.911   5.159   5.456 -0.0154  0.0621 -0.3226
 4333WAT     H118038   4.876   5.080   5.443 -0.6642  0.0157  1.4471
 4333WAT     H218039   4.954   5.150   5.532 -0.1299  1.4224 -0.0742
 4333WAT    EPW18040   4.912   5.146   5.465 -0.5179  0.1182 -0.4265
 4334WAT      O18041   7.223   3.862   5.972 -0.1651 -0.5489 -0.6254
 4334WAT     H118042   7.241   3.934   6.016 -0.4774  0.2853 -1.8109
 4334WAT     H218043   7.217   3.800   6.034 -2.2013  0.8414  0.6897
 4334WAT    EPW18044   7.225   3.863   5.987 -0.4791 -0.1727  0.2944
 4335WAT      O18045   0.549   2.394   4.475 -0.3587  0.0109 -0.4562
 4335WAT     H118046   0.571   2.310   4.474 -0.1604  0.0632 -0.6794
 4335WAT     H218047   0.506   2.404   4.551 -2.9033 -0.9148 -1.6658
 4335WAT    EPW18048   0.546   2.383   4.486 -0.5898  0.0257  0.3254
 4336WAT      O18049   5.119   6.725   1.983 -0.7719 -0.1720 -0.4629
 4336WAT     H118050   5.041   6.736   2.021  0.4515  1.6857  1.7438
 4336WAT     H218051   5.138   6.642   2.000 -1.9640 -0.4556 -0.4227
 4336WAT    EPW18052   5.110   6.714   1.991 -0.4514  0.2569  0.2642
 4337WAT      O18053   0.669   0.513   4.539  0.5184  0.4672  0.1158
 4337WAT     H118054   0.719   0.517   4.610  1.6918  0.8252 -0.7167
 4337WAT     H218055   0.704   0.572   4.485 -0.9294  0.9001 -0.4208
 4337WAT    EPW18056   0.681   0.522   4.541  0.4983 -0.1613 -0.3855
 4338WAT      O18057   0.086   5.962   4.803  0.4204 -0.3119 -0.0616
 4338WAT     H118058   0.107   6.047   4.792  0.7784 -0.5469 -1.4729
 4338WAT     H218059   0.014   5.965   4.851 -0.3623  0.8877 -1.2231
 4338WAT    EPW18060   0.079   5.975   4.808  0.2517  0.0333 -0.1423
 4339WAT      O18061   4.259   2.352   7.241 -0.5923 -0.1956  0.1367
 4339WAT     H118062   4.324   2.383   7.192 -0.7660 -1.1706 -0.7489
 4339WAT     H218063   4.298   2.331   7.316  0.2125 -1.0667 -0.4898
 4339WAT    EPW18064   4.274   2.353   7.245 -0.6733  0.4472 -0.2908
 4340WAT      O18065   2.182   4.181   4.279 -0.3540  0.0928  0.4475
 4340WAT     H118066   2.103   4.175   4.315 -0.8040 -0.2074 -0.5710
 4340WAT     H218067   2.229   4.121   4.322 -0.7974 -0.0568  0.7243
 4340WAT    EPW18068   2.178   4.171   4.291  0.1104 -0.2535 -0.3097
 4341WAT      O18069   6.305   7.449   5.012  0.0950 -0.2638  0.6718
 4341WAT     H118070   6.296   7.445   4.925  0.6663 -0.4131  0.6145
 4341WAT     H218071   6.279   7.370   5.040  0.7624 -0.5276  0.5540
 4341WAT    EPW18072   6.300   7.437   5.003  0.0077 -0.7664 -0.0929
 4342WAT      O18073   4.980   0.282   6.334  0.2679 -0.2270  0.0972
 4342WAT     H118074   5.025   0.307   6.404  0.3639 -0.0030 -0.0397
 4342WAT     H218075   4.899   0.310   6.350  0.4081  0.3263 -0.1243
 4342WAT    EPW18076   4.975   0.290   6.346  0.0007  0.9673  0.0024
 4343WAT      O18077   6.696   4.355   3.471  0.3115  0.0209  0.4441
 4343WAT     H118078   6.702   4.325   3.389  0.9883 -0.5458  0.6945
 4343WAT     H218079   6.744   4.427   3.470  0.2999  0.0273  0.3368
 4343WAT    EPW18080   6.704   4.361   3.459 -0.4149 -0.4485  0.9795
 4344WAT      O18081   4.893   1.784   7.564  0.3019 -0.3369  0.1345
 4344WAT     H118082   4.865   1.735   7.498 -1.3747  0.0419  0.4929
 4344WAT     H218083   4.922   1.726   7.622  0.7553 -0.7303 -0.4740
 4344WAT    EPW18084   4.893   1.768   7.563  0.0123  0.1364  0.8695
 4345WAT      O18085   0.314   0.334   1.610 -1.0337  0.3975 -0.3390
 4345WAT     H118086   0.325   0.412   1.648 -0.3648  0.0427  0.2302
 4345WAT     H218087   0.229   0.316   1.624 -0.3101 -1.1041  3.9354
 4345WAT    EPW18088   0.303   0.343   1.618 -0.5212 -0.3778  0.3622
 4346WAT      O18089   1.704   6.895   4.572 -0.6120  0.0266 -0.3092
 4346WAT     H118090   1.682   6.907   4.656 -0.0145  1.8858 -0.3703
 4346WAT     H218091   1.628   6.899   4.530 -0.9895 -1.4988  0.1590
 4346WAT    EPW18092   1.690   6.898   4.578  0.1408 -0.1435  0.8982
 4347WAT      O18093   5.408   3.946   0.510 -0.3095 -0.1780 -0.1687
 4347WAT     H118094   5.449   4.021   0.526  0.0398 -0.4559  0.2289
 4347WAT     H218095   5.324   3.966   0.524 -0.0405 -0.4436  2.2589
 4347WAT    EPW18096   5.401   3.960   0.514  0.1481  0.6068 -0.3989
 4348WAT      O18097   0.266   2.920   0.524 -0.2044 -0.2152  0.3463
 4348WAT     H118098   0.181   2.940   0.521  0.1626  1.3409 -1.6191
 4348WAT     H218099   0.266   2.835   0.543 -2.2250 -0.3628 -0.0651
 4348WAT    EPW18100   0.253   2.910   0.526  0.2903 -0.2143 -0.2143
 4349WAT      O18101   4.096   4.381   3.851 -0.2521 -0.4067  0.2194
 4349WAT     H118102   4.074   4.344   3.775  0.5938  1.3751 -0.9823
 4349WAT     H218103   4.040   4.448   3.858  0.6688  0.3781  0.3295
 4349WAT    EPW18104   4.085   4.385   3.840 -0.3800  0.2658  0.1453
 4350WAT      O18105   3.612   3.454   2.877 -0.3113  0.7413 -0.0427
 4350WAT     H118106   3.532   3.436   2.848  0.1284  0.1714 -0.9239
 4350WAT     H218107   3.640   3.378   2.910  0.0267  0.8399 -0.0998
 4350WAT    EPW18108   3.604   3.440   2.878  0.2419  0.0491  0.1240
 4351WAT      O18109   6.291   0.876   4.676  0.3316 -0.1264  0.2035
 4351WAT     H118110   6.340   0.819   4.632 -0.7540 -0.3136 -0.8020
 4351WAT     H218111   6.255   0.827   4.739  0.4083 -0.2703  0.1374
 4351WAT    EPW18112   6.293   0.860   4.679  0.2889 -0.1206 -0.4033
 4352WAT      O18113   0.079   3.303   6.273  0.0183  0.3726 -0.7659
 4352WAT     H118114   0.111   3.346   6.342  0.1279  1.1736 -1.3079
 4352WAT     H218115   0.126   3.229   6.272  1.2498  1.1173 -1.0035
 4352WAT    EPW18116   0.091   3.298   6.283  0.3429 -0.1546  0.5183
 4353WAT      O18117   2.507   0.703   4.918  0.4651 -0.1144  0.0375
 4353WAT     H118118   2.593   0.718   4.915  1.2835 -3.5198  1.3855
 4353WAT     H218119   2.483   0.739   4.994  0.7760  0.4650 -0.1343
 4353WAT    EPW18120   2.516   0.711   4.929 -0.5527  0.2870 -0.4081
 4354WAT      O18121   0.683   6.482   5.175  0.1434 -0.6345 -0.2398
 4354WAT     H118122   0.719   6.465   5.097  0.3035 -1.9084  0.0869
 4354WAT     H218123   0.736   6.443   5.231 -0.9119 -1.2441  0.3703
 4354WAT    EPW18124   0.696   6.474   5.172 -0.8698  0.0091 -0.0282
 4355WAT      O18125   1.841   6.057   2.992  0.2094 -0.3132 -0.3823
 4355WAT     H118126   1.841   6.036   3.076 -0.8791  0.1333 -0.2581
 4355WAT     H218127   1.859   6.143   2.992  1.0175 -0.4720 -0.6657
 4355WAT    EPW18128   1.844   6.067   3.004 -0.0884  0.0742  0.0099
 4356WAT      O18129   5.579   4.160   0.610 -0.1359 -0.6238 -0.3425
 4356WAT     H118130   5.573   4.226   0.667  0.1016 -0.5885 -0.3579
 4356WAT     H218131   5.655   4.174   0.570 -0.2050 -0.7653 -0.5250
 4356WAT    EPW18132   5.589   4.171   0.612  0.4368 -0.0496 -0.6343
 4357WAT      O18133   0.265   5.271   4.114 -0.2600  0.3795 -0.1405
 4357WAT     H118134   0.331   5.324   4.094  1.5356 -2.1031 -1.3255
 4357WAT     H218135   0.251   5.286   4.199  0.6688  2.1265 -0.2567
 4357WAT    EPW18136   0.272   5.281   4.123  0.0514  0.4158  0.3627
 4358WAT      O18137   5.697   2.810   7.127  0.2881  0.3589 -0.6231
 4358WAT     H118138   5.716   2.725   7.129  1.3511  0.5280  3.3815
 4358WAT     H218139   5.609   2.811   7.129  0.2724 -0.7393  1.3893
 4358WAT    EPW18140   5.687   2.798   7.127 -0.1624 -0.2419 -0.0625
 4359WAT      O18141   2.411   1.144   2.818  0.4668 -0.1289 -0.1087
 4359WAT     H118142   2.459   1.102   2.759 -0.8993 -1.4676 -0.3455
 4359WAT     H218143   2.424   1.228   2.799  2.5146 -0.4359 -0.2692
 4359WAT    EPW18144   2.420   1.150   2.806 -0.3166  0.0280  0.1082
 4360WAT      O18145   7.462   5.697   1.043  0.0606 -0.0155 -0.1533
 4360WAT     H118146   7.470   5.751   1.111 -0.3625  3.0344 -2.3206
 4360WAT     H218147   7.434   5.749   0.979  0.8051 -2.6218 -2.7945
 4360WAT    EPW18148   7.459   5.713   1.044 -0.1256 -0.5800  0.1823
 4361WAT      O18149   2.921   3.424   5.932  0.4993  0.3302  0.1854
 4361WAT     H118150   2.860   3.363   5.922  1.4315 -0.3944 -1.6277
 4361WAT     H218151   2.878   3.490   5.968 -0.7920 -0.9929  1.1947
 4361WAT    EPW18152   2.906   3.425   5.936  0.3216  0.3234 -0.1735
 4362WAT      O18153   2.686   0.649   3.223 -0.1634  0.2673 -0.2086
 4362WAT     H118154   2.749   0.619   3.275 -0.8499 -0.7374  0.0599
 4362WAT     H218155   2.727   0.709   3.175  0.5270  1.1538  1.3879
 4362WAT    EPW18156   2.702   0.654   3.224 -1.1226  0.4334  0.0888
 4363WAT      O18157   6.266   5.526   6.539  0.1217  0.6952 -0.2789
 4363WAT     H118158   6.317   5.489   6.479 -1.5121 -1.5588 -0.4145
 4363WAT     H218159   6.234   5.596   6.498  0.2009  0.0211 -1.5401
 4363WAT    EPW18160   6.269   5.531   6.524  0.2820  0.9338 -0.3449
 4364WAT      O18161   6.557   2.973   0.352  0.4384  0.3737  0.3272
 4364WAT     H118162   6.588   2.969   0.434  1.0353  0.0487  0.0885
 4364WAT     H218163   6.473   2.991   0.364  0.3924 -0.2440  1.0361
 4364WAT    EPW18164   6.549   2.975   0.366  0.4976  0.1694  0.4031
 4365WAT      O18165   0.399   0.769   5.506  0.1183 -0.2410 -0.2193
 4365WAT     H118166   0.477   0.790   5.538 -0.5716 -0.0489  1.4347
 4365WAT     H218167   0.371   0.706   5.560 -0.9779 -0.1265 -0.6300
 4365WAT    EPW18168   0.407   0.763   5.519 -0.5261  0.3608  0.1093
 4366WAT      O18169   6.814   1.673   3.520  0.2915  0.0817  0.0790
 4366WAT     H118170   6.734   1.662   3.485 -1.1109  0.9503  2.7163
 4366WAT     H218171   6.813   1.756   3.546  1.6188 -0.2327  1.1992
 4366WAT    EPW18172   6.802   1.684   3.518 -0.2337  0.3365  0.8035
 4367WAT      O18173   1.544   4.479   6.922 -0.4909 -0.0963 -0.1567
 4367WAT     H118174   1.559   4.465   6.837 -2.6330 -0.6665 -0.5164
 4367WAT     H218175   1.600   4.542   6.943  1.3960 -1.2355 -1.4980
 4367WAT    EPW18176   1.554   4.487   6.912 -0.2841  0.6918 -0.2010
 4368WAT      O18177   6.211   1.592   7.474  0.4732 -0.1560 -0.1373
 4368WAT     H118178   6.278   1.644   7.494  0.6835 -0.5850  0.2898
 4368WAT     H218179   6.206   1.598   7.387  1.5408 -0.6905 -0.2512
 4368WAT    EPW18180   6.220   1.601   7.464 -0.2610 -0.0969 -0.2478
 4369WAT      O18181   2.738   3.790   0.837 -0.8130  0.5645 -0.4092
 4369WAT     H118182   2.794   3.788   0.769  0.0368 -0.7541  0.2886
 4369WAT     H218183   2.784   3.828   0.900 -1.1256  0.5593 -0.1772
 4369WAT    EPW18184   2.753   3.795   0.836 -0.6309  0.1394  0.2008
 4370WAT      O18185   0.060   2.998   6.513 -0.1603  0.5783 -0.1439
 4370WAT     H118186   0.113   3.068   6.515  0.6974 -0.0450  1.8566
 4370WAT     H218187   0.116   2.930   6.515 -0.9996 -0.1616 -0.8395
 4370WAT    EPW18188   0.076   2.998   6.514 -0.2490 -0.1529 -0.0806
 4371WAT      O18189   7.449   1.137   6.182  0.3581  0.7476 -0.4296
 4371WAT     H118190   7.371   1.097   6.186  0.8745 -0.6068 -2.4503
 4371WAT     H218191   7.447   1.192   6.250 -2.0284  0.1803  0.0555
 4371WAT    EPW18192   7.437   1.139   6.193 -0.7374 -0.5305  0.2568
 4372WAT      O18193   1.530   5.877   2.801 -0.3473  0.2340  0.6796
 4372WAT     H118194   1.501   5.863   2.720 -1.7503  1.5882  0.9098
 4372WAT     H218195   1.616   5.891   2.790 -0.4769  0.1750 -0.5349
 4372WAT    EPW18196   1.539   5.877   2.788  0.2588  0.0755 -0.1733
 4373WAT      O18197   4.577   6.451   2.609  0.5862  0.6821 -0.1892
 4373WAT     H118198   4.633   6.392   2.640  1.4201  1.6394  0.1784
 4373WAT     H218199   4.567   6.508   2.675 -1.5193  0.0950  0.0812
 4373WAT    EPW18200   4.584   6.451   2.623  0.2052  0.0744  0.5029
 4374WAT      O18201   5.236   0.695   7.110  0.5002  0.0778  0.1665
 4374WAT     H118202   5.153   0.685   7.084  0.7587 -0.6641 -0.3881
 4374WAT     H218203   5.228   0.741   7.184 -0.4747 -0.7723  0.6143
 4374WAT    EPW18204   5.222   0.700   7.117 -0.2428  0.9579 -0.1501
 4375WAT      O18205   7.410   1.434   4.233 -0.1555 -0.3521 -0.1615
 4375WAT     H118206   7.389   1.517   4.251 -0.1262 -0.7757  2.1039
 4375WAT     H218207   7.339   1.404   4.191 -0.5824  0.5374 -0.1083
 4375WAT    EPW18208   7.396   1.442   4.229  0.1451  0.3064  0.4016
 4376WAT      O18209   2.949   7.396   4.288  0.2741  0.2560  0.2721
 4376WAT     H118210   3.003   7.328   4.282 -1.5072 -1.2133 -0.1555
 4376WAT     H218211   2.998   7.458   4.324  2.0011 -1.2261  0.6354
 4376WAT    EPW18212   2.964   7.395   4.292 -0.4011 -0.1641 -0.7001
 4377WAT      O18213   1.648   4.279   5.444  0.5474  0.2620 -0.2621
 4377WAT     H118214   1.695   4.293   5.372  1.3031 -0.5395  0.0652
 4377WAT     H218215   1.566   4.282   5.415  0.8082  0.8088 -0.9919
 4377WAT    EPW18216   1.643   4.282   5.429  0.0004  0.6042 -0.5282
 4378WAT      O18217   5.332   2.135   0.323  0.7144  0.8477  0.2841
 4378WAT     H118218   5.383   2.076   0.363  0.3722  1.1626  1.1995
 4378WAT     H218219   5.380   2.161   0.255  1.3896  0.4570  0.6033
 4378WAT    EPW18220   5.346   2.130   0.319 -0.3713  0.0930  0.1217
 4379WAT      O18221   2.251   0.960   6.687  0.4362  0.3413  0.4250
 4379WAT     H118222   2.326   0.917   6.694  0.7547 -0.1880 -3.7450
 4379WAT     H218223   2.273   1.037   6.653 -0.7630  1.1743  1.4067
 4379WAT    EPW18224   2.265   0.965   6.683 -0.4270 -0.5863  0.2739
 4380WAT      O18225   5.760   5.462   2.344 -0.3415 -0.1812 -0.0876
 4380WAT     H118226   5.735   5.539   2.312  0.1316 -0.3353 -0.8517
 4380WAT     H218227   5.847   5.463   2.333 -0.4429 -1.3278 -1.2824
 4380WAT    EPW18228   5.769   5.474   2.338 -0.1004 -0.5705  0.4274
 4381WAT      O18229   2.898   5.279   3.348  0.3749 -0.1636  0.1276
 4381WAT     H118230   2.864   5.229   3.285  0.5764 -0.0181 -0.0988
 4381WAT     H218231   2.942   5.222   3.398  1.3614 -0.1084 -0.6332
 4381WAT    EPW18232   2.900   5.263   3.346  0.5422 -0.2340 -0.3770
 4382WAT      O18233   6.270   3.939   2.400  0.7136  0.4445 -0.2540
 4382WAT     H118234   6.299   3.867   2.359  1.0801 -1.2362  2.6693
 4382WAT     H218235   6.342   3.971   2.438 -0.2300 -1.7021  4.0703
 4382WAT    EPW18236   6.285   3.933   2.400 -0.1791 -0.1663  0.3967
 4383WAT      O18237   4.415   0.554   4.462 -0.0634 -0.1352  0.1630
 4383WAT     H118238   4.432   0.537   4.378 -1.1159 -2.3268  0.3070
 4383WAT     H218239   4.343   0.603   4.459 -0.4331 -0.6818 -0.2551
 4383WAT    EPW18240   4.407   0.558   4.449  0.0860 -0.0336  0.0099
 4384WAT      O18241   6.959   2.346   6.058 -0.5261 -0.1886  0.7373
 4384WAT     H118242   7.031   2.386   6.087  0.8841 -1.1158 -1.2516
 4384WAT     H218243   6.929   2.400   5.997  0.6957 -1.4621 -1.0929
 4384WAT    EPW18244   6.965   2.360   6.053  0.5539  0.0391  0.1257
 4385WAT      O18245   3.742   6.057   2.645 -0.0744  0.3823  0.4488
 4385WAT     H118246   3.788   6.057   2.572 -2.0356 -0.2685 -0.8706
 4385WAT     H218247   3.762   6.133   2.683  2.2821 -0.0407  0.1643
 4385WAT    EPW18248   3.751   6.068   2.640 -0.1131  0.2138  0.1812
 4386WAT      O18249   4.471   3.597   4.006 -0.4341 -0.1181  0.2241
 4386WAT     H118250   4.430   3.567   3.935  0.6430  1.8738 -1.3276
 4386WAT     H218251   4.408   3.640   4.049 -0.4705  1.1759 -1.0767
 4386WAT    EPW18252   4.456   3.599   4.002  0.6199 -0.1351 -0.3198
 4387WAT      O18253   6.438   3.454   3.123 -0.2488  0.1316 -0.1155
 4387WAT     H118254   6.372   3.489   3.168  0.4171  0.5221  0.5872
 4387WAT     H218255   6.472   3.395   3.178  0.0367 -0.0107 -0.4374
 4387WAT    EPW18256   6.434   3.450   3.138 -0.6490  0.2701  0.3223
 4388WAT      O18257   1.873   0.445   0.198  0.5488 -0.1785  0.3650
 4388WAT     H118258   1.958   0.428   0.193  0.1907 -2.0468 -0.2944
 4388WAT     H218259   1.861   0.470   0.281  1.4577 -1.8101  1.0348
 4388WAT    EPW18260   1.884   0.446   0.209 -0.0783 -0.7389  0.1325
 4389WAT      O18261   0.924   0.589   6.041  0.3756 -0.3928 -0.3379
 4389WAT     H118262   0.873   0.639   6.090  0.1936 -0.7717 -0.1298
 4389WAT     H218263   0.980   0.555   6.098 -0.4249 -1.5758 -0.2079
 4389WAT    EPW18264   0.924   0.591   6.057 -0.2686 -0.1461 -0.0833
 4390WAT      O18265   4.845   3.065   1.541 -0.0752  0.2006 -0.0772
 4390WAT     H118266   4.758   3.052   1.545 -0.4487  2.4356  0.6470
 4390WAT     H218267   4.868   3.025   1.467 -2.0610  0.9617 -1.1932
 4390WAT    EPW18268   4.835   3.057   1.531 -0.0017 -0.3356 -0.1003
 4391WAT      O18269   4.864   0.087   2.947 -0.3903  0.3909  0.6259
 4391WAT     H118270   4.842   0.160   2.905 -3.3165 -0.8082 -0.1876
 4391WAT     H218271   4.821   0.025   2.903 -0.0622 -1.4873  2.7986
 4391WAT    EPW18272   4.855   0.089   2.934  0.0160 -0.0891 -0.3429
 4392WAT      O18273   7.246   1.441   6.411  0.2992 -0.4375  0.0361
 4392WAT     H118274   7.235   1.445   6.324  1.7009  0.0476 -0.1497
 4392WAT     H218275   7.313   1.386   6.421  0.1206 -0.5256  0.8103
 4392WAT    EPW18276   7.255   1.434   6.400  0.1617 -0.4043 -0.8257
 4393WAT      O18277   7.147   2.836   2.978  0.1259 -0.3876  0.0478
 4393WAT     H118278   7.134   2.916   2.944  0.2620  0.2503  1.4173
 4393WAT     H218279   7.142   2.850   3.064 -0.2668 -1.9452  0.3016
 4393WAT    EPW18280   7.145   2.850   2.985  0.1310  0.0451 -0.7063
 4394WAT      O18281   5.888   3.052   0.858 -0.2792  0.4270 -0.2439
 4394WAT     H118282   5.900   3.136   0.838 -1.4202  0.8186  0.6077
 4394WAT     H218283   5.833   3.024   0.796  0.4260  0.1870 -0.7696
 4394WAT    EPW18284   5.882   3.060   0.846  0.2774 -0.2745 -0.5952
 4395WAT      O18285   1.989   3.135   3.250  0.2679  0.9218 -0.6060
 4395WAT     H118286   1.930   3.103   3.195 -0.5181  0.3733  0.5163
 4395WAT     H218287   1.991   3.220   3.232 -1.8088  1.1810  0.1630
 4395WAT    EPW18288   1.981   3.143   3.240 -0.3805 -0.2116 -0.4210
 4396WAT      O18289   6.766   1.179   4.190 -0.1793 -0.1537 -0.3271
 4396WAT     H118290   6.816   1.123   4.235 -0.9463  1.0393  2.1885
 4396WAT     H218291   6.820   1.212   4.131  2.1748  1.1831  2.3515
 4396WAT    EPW18292   6.781   1.175   4.188 -0.1532 -0.1746 -0.2460
 4397WAT      O18293   2.553   0.719   4.061 -0.6489  0.0484 -0.2776
 4397WAT     H118294   2.510   0.672   4.120 -0.9195 -2.4927 -2.3067
 4397WAT     H218295   2.634   0.722   4.092 -1.4307  1.9532  1.9046
 4397WAT    EPW18296   2.558   0.713   4.074  0.5637  0.5954  0.6254
 4398WAT      O18297   4.060   5.464   3.904 -0.4747  0.0854  0.3914
 4398WAT     H118298   4.005   5.445   3.840  0.3623  0.5843 -0.5069
 4398WAT     H218299   4.107   5.530   3.872  1.6427 -1.2701  0.5028
 4398WAT    EPW18300   4.059   5.471   3.890 -0.1028 -0.5594 -0.5321
 4399WAT      O18301   2.896   4.135   1.346  0.1047 -0.1097  0.0103
 4399WAT     H118302   2.939   4.063   1.369 -0.0055 -0.1107  0.2166
 4399WAT     H218303   2.957   4.198   1.347  0.3299 -0.3011 -0.7481
 4399WAT    EPW18304   2.911   4.134   1.349 -0.1525  0.8302  0.3800
 4400WAT      O18305   7.174   2.017   4.605 -0.4811 -0.1067  0.4923
 4400WAT     H118306   7.189   2.102   4.602 -0.3281 -0.1232  0.7330
 4400WAT     H218307   7.094   2.008   4.570 -0.5133  0.1376  0.5065
 4400WAT    EPW18308   7.164   2.028   4.600  0.1556  0.1398  0.1313
 4401WAT      O18309   0.142   6.967   4.271  0.3797 -0.0798  0.3096
 4401WAT     H118310   0.183   7.038   4.301 -1.5785  0.2575  2.4058
 4401WAT     H218311   0.206   6.908   4.264  2.2174  1.9775 -2.2124
 4401WAT    EPW18312   0.158   6.969   4.274 -0.3275 -0.0149  0.1795
 4402WAT      O18313   1.479   6.825   1.073  0.0980 -0.3340 -0.1590
 4402WAT     H118314   1.402   6.846   1.109 -0.5151 -1.7144 -0.5967
 4402WAT     H218315   1.488   6.740   1.091  1.7287 -0.1198  0.2083
 4402WAT    EPW18316   1.469   6.815   1.081 -0.8938 -0.2600 -0.1968
 4403WAT      O18317   6.476   1.860   6.417 -0.0287 -0.4660 -0.6731
 4403WAT     H118318   6.409   1.870   6.473  0.7857  1.1468  0.0985
 4403WAT     H218319   6.531   1.924   6.440  1.0557 -0.7404 -2.3309
 4403WAT    EPW18320   6.474   1.871   6.429 -0.5491  0.2526  0.1941
 4404WAT      O18321   5.801   4.438   3.128  0.0763  0.1020  0.3057
 4404WAT     H118322   5.859   4.487   3.170  0.7506 -1.4736  1.2730
 4404WAT     H218323   5.760   4.395   3.192 -3.1059  2.0468 -0.1904
 4404WAT    EPW18324   5.803   4.439   3.144 -0.0822  0.1795 -0.1067
 4405WAT      O18325   0.077   3.080   7.065 -0.1737  0.7024 -0.8189
 4405WAT     H118326   0.017   3.029   7.103 -0.5001  1.3274 -0.4980
 4405WAT     H218327   0.029   3.144   7.029  0.3546  1.5988  0.0503
 4405WAT    EPW18328   0.061   3.082   7.065  0.1283  0.4899 -0.2641
 4406WAT      O18329   2.399   3.079   7.099 -0.0659 -0.5224 -0.1586
 4406WAT     H118330   2.358   3.077   7.176  0.2122 -2.8193 -0.0117
 4406WAT     H218331   2.463   3.137   7.112 -2.1340  1.8832  0.1164
 4406WAT    EPW18332   2.402   3.087   7.112 -0.0398 -0.3531 -0.1691
 4407WAT      O18333   0.633   0.873   2.874  0.5073  0.0496  0.0498
 4407WAT     H118334   0.609   0.944   2.919 -1.9060 -1.6102  1.6036
 4407WAT     H218335   0.700   0.901   2.826 -0.0554  3.2456  0.9150
 4407WAT    EPW18336   0.639   0.888   2.874  0.2629  0.5988 -0.1396
 4408WAT      O18337   5.314   2.882  -0.010 -0.2129 -0.4231  0.7018
 4408WAT     H118338   5.383   2.876   0.043  0.0385  0.5371  0.5021
 4408WAT     H218339   5.253   2.919   0.040 -1.3248 -3.1884  1.5404
 4408WAT    EPW18340   5.315   2.887   0.005 -0.4683 -0.2348  0.8007
 4409WAT      O18341   5.480   1.364   5.626 -0.2245 -0.1908  0.6176
 4409WAT     H118342   5.493   1.374   5.540 -1.0931 -0.9142  0.3843
 4409WAT     H218343   5.507   1.440   5.660  0.6396 -0.1033 -0.2299
 4409WAT    EPW18344   5.486   1.377   5.618  0.3606  0.4480  0.1093
 4410WAT      O18345   5.980   1.662   6.542 -0.0758  0.0673  0.8787
 4410WAT     H118346   6.026   1.636   6.611 -0.4005 -0.2073  0.9903
 4410WAT     H218347   6.034   1.648   6.475 -0.2542 -0.9407  0.9286
 4410WAT    EPW18348   5.995   1.656   6.542  0.5153  0.0402 -0.3388
 4411WAT      O18349   6.767   2.841   6.504  0.3177 -0.2699 -0.0996
 4411WAT     H118350   6.821   2.788   6.460  0.4553  0.9808 -1.5094
 4411WAT     H218351   6.808   2.918   6.502 -0.7477  0.3240  0.2834
 4411WAT    EPW18352   6.781   2.844   6.497 -0.0327 -0.6416  0.1904
 4412WAT      O18353   3.070   3.750   6.861 -0.0810 -0.3944  0.1794
 4412WAT     H118354   3.049   3.742   6.777  0.7096 -1.5479  0.0654
 4412WAT     H218355   3.018   3.691   6.900 -1.0586  0.7258  0.6358
 4412WAT    EPW18356   3.059   3.740   6.855 -0.2269  0.1121  0.3471
 4413WAT      O18357   6.205   4.559   0.258  0.7480 -0.5501 -0.5310
 4413WAT     H118358   6.214   4.520   0.336  0.2105 -1.8928 -1.1028
 4413WAT     H218359   6.286   4.558   0.225  0.8533 -0.6175 -0.2744
 4413WAT    EPW18360   6.218   4.553   0.264  0.1581  0.1836 -0.4220
 4414WAT      O18361   4.462   1.498   6.610  0.1748  0.5918  0.8832
 4414WAT     H118362   4.442   1.579   6.582 -0.4875  0.1879  0.1610
 4414WAT     H218363   4.432   1.498   6.693 -3.6439 -0.1682 -0.2874
 4414WAT    EPW18364   4.454   1.510   6.618  0.7943 -0.0130  0.0173
 4415WAT      O18365   5.076   4.895   5.816  0.0690  0.3053  0.5256
 4415WAT     H118366   5.137   4.845   5.852 -1.1866 -1.4938  0.3149
 4415WAT     H218367   5.004   4.874   5.860 -0.4622  2.2263  0.6519
 4415WAT    EPW18368   5.074   4.884   5.827 -0.0567  0.6339 -0.8008
 4416WAT      O18369   4.064   3.238   5.989  0.8941 -0.1938  0.4253
 4416WAT     H118370   4.049   3.314   5.950 -0.2172 -0.7212 -0.2415
 4416WAT     H218371   4.151   3.232   5.992  0.9916  1.1191  0.5642
 4416WAT    EPW18372   4.074   3.248   5.984 -0.1896  0.5051 -0.4914
 4417WAT      O18373   1.969   1.858   3.998 -0.4969 -0.1138  0.2928
 4417WAT     H118374   1.902   1.802   3.991  1.1286 -1.8876 -3.5353
 4417WAT     H218375   1.944   1.926   3.949  0.2651 -0.6606 -0.9148
 4417WAT    EPW18376   1.955   1.860   3.990  0.1448 -0.3722 -0.3912
 4418WAT      O18377   2.436   6.874   4.786  0.8895 -0.0221  0.5702
 4418WAT     H118378   2.460   6.881   4.702 -0.3097 -0.7847  0.1320
 4418WAT     H218379   2.350   6.891   4.784  1.0562  1.2221  1.8542
 4418WAT    EPW18380   2.427   6.878   4.773 -0.1314  0.0298  0.0933
 4419WAT      O18381   2.077   0.988   6.904 -0.1441  0.1515  0.3849
 4419WAT     H118382   2.039   1.066   6.895 -1.3034 -0.3508  0.6687
 4419WAT     H218383   2.126   0.981   6.832  1.5215  1.9345  1.2743
 4419WAT    EPW18384   2.078   0.999   6.892 -0.1844 -0.3555  0.0022
 4420WAT      O18385   3.900   3.060   5.852 -0.9012  0.3204 -0.3143
 4420WAT     H118386   3.817   3.088   5.852 -0.4031  1.9041 -1.0518
 4420WAT     H218387   3.936   3.103   5.919 -0.3955  0.5683 -0.7390
 4420WAT    EPW18388   3.893   3.071   5.862  0.4163  0.2816 -0.6868
 4421WAT      O18389   2.346   5.443   5.818  0.2111  0.3480 -0.5123
 4421WAT     H118390   2.361   5.522   5.783  0.4808  1.3351  1.6996
 4421WAT     H218391   2.324   5.461   5.900  0.8152 -1.9423  0.2047
 4421WAT    EPW18392   2.345   5.457   5.825  0.3079 -0.3080  0.0082
 4422WAT      O18393   1.181   3.745   6.230 -0.0216  0.0263  0.1039
 4422WAT     H118394   1.134   3.772   6.162 -1.1120 -0.5146  0.6152
 4422WAT     H218395   1.208   3.666   6.206 -1.4177 -0.6810  0.7315
 4422WAT    EPW18396   1.178   3.737   6.217  0.2519  0.4476 -0.3637
 4423WAT      O18397   6.357   0.628   5.397 -0.1338 -0.3927 -0.7659
 4423WAT     H118398   6.349   0.711   5.424 -1.3177 -1.0500  1.0990
 4423WAT     H218399   6.279   0.611   5.360 -0.2287 -0.9252 -0.3336
 4423WAT    EPW18400   6.344   0.638   5.396  0.7711  0.3642 -0.8964
 4424WAT      O18401   2.060   2.295   6.331  0.0821 -0.6519  0.0163
 4424WAT     H118402   1.982   2.287   6.368  0.4447 -0.4769  0.8427
 4424WAT     H218403   2.098   2.218   6.347 -0.3361 -1.1678 -1.3963
 4424WAT    EPW18404   2.054   2.282   6.339 -0.2358  0.0169 -0.1332
 4425WAT      O18405   5.658   6.436   0.194 -0.2829  0.0434 -0.1107
 4425WAT     H118406   5.580   6.461   0.164  0.3877  2.5620  0.0960
 4425WAT     H218407   5.714   6.470   0.137  0.7607 -0.0299  0.8403
 4425WAT    EPW18408   5.655   6.445   0.181  0.0859  0.0088 -0.4757
 4426WAT      O18409   6.884   7.369   2.037 -0.1648  0.2080  0.2750
 4426WAT     H118410   6.945   7.317   2.002  0.3059  0.6444  0.4371
 4426WAT     H218411   6.826   7.378   1.972  0.8769  1.2981 -0.5649
 4426WAT    EPW18412   6.885   7.363   2.022  0.4112  0.5620 -0.2684
 4427WAT      O18413   6.642   1.178   5.627  0.5070  0.4648 -0.3933
 4427WAT     H118414   6.605   1.162   5.549  0.7555  1.6723 -0.7816
 4427WAT     H218415   6.725   1.196   5.607  0.2299  2.3321 -0.0611
 4427WAT    EPW18416   6.649   1.178   5.613  0.1420 -0.1153 -0.0651
 4428WAT      O18417   0.398   5.359   5.395 -0.0073  0.2003  0.0924
 4428WAT     H118418   0.484   5.372   5.387  0.0926  0.8029  1.8017
 4428WAT     H218419   0.391   5.273   5.401  0.6893  0.2190  1.6552
 4428WAT    EPW18420   0.410   5.348   5.395 -0.0749  0.3618  0.3247
 4429WAT      O18421   1.790   1.049   5.901 -0.2279 -0.3822 -0.2964
 4429WAT     H118422   1.864   1.075   5.939 -0.7624  1.7467 -0.5933
 4429WAT     H218423   1.757   0.992   5.959  0.5471  0.3590  0.9307
 4429WAT    EPW18424   1.796   1.044   5.915 -0.3633 -0.2985 -0.0766
 4430WAT      O18425   4.623   5.692   3.152 -0.3191  0.2728 -0.3010
 4430WAT     H118426   4.650   5.661   3.075  0.3039 -0.7328  0.2934
 4430WAT     H218427   4.561   5.635   3.176  1.0313 -0.7838  0.9367
 4430WAT    EPW18428   4.618   5.679   3.145 -0.2231  0.3245 -0.1557
 4431WAT      O18429   4.813   5.637   6.244  0.1361 -0.2311  0.0546
 4431WAT     H118430   4.794   5.557   6.275  1.2259  0.4211  2.7616
 4431WAT     H218431   4.896   5.630   6.219 -0.5810 -0.5999 -2.4540
 4431WAT    EPW18432   4.822   5.624   6.245 -0.3248  0.8269  0.2512
 4432WAT      O18433   0.356   6.066   0.914 -0.0204  1.3818 -0.2852
 4432WAT     H118434   0.385   6.094   0.837  0.0134  1.6947 -0.1607
 4432WAT     H218435   0.375   5.981   0.914 -1.6225  0.9956 -1.3568
 4432WAT    EPW18436   0.363   6.058   0.903 -0.5420 -0.3359  0.4699
 4433WAT      O18437   2.317   4.747   3.117 -0.2005 -0.1355 -0.1141
 4433WAT     H118438   2.376   4.784   3.064 -0.4856  0.9323  0.2819
 4433WAT     H218439   2.289   4.679   3.071  1.0305 -0.4332 -0.4839
 4433WAT    EPW18440   2.322   4.743   3.102 -0.3129  0.8429  0.3309
 4434WAT      O18441   0.290   5.769   4.814  0.7226 -0.5149  0.1174
 4434WAT     H118442   0.235   5.836   4.817  2.0465  0.6907  4.2278
 4434WAT     H218443   0.311   5.763   4.729 -1.2790  2.6563 -0.7678
 4434WAT    EPW18444   0.285   5.778   4.802 -1.1050  0.1695 -0.0059
 4435WAT      O18445   0.085   0.885   6.707  0.0009 -0.5854  0.1547
 4435WAT     H118446   0.113   0.915   6.784  2.4136 -0.7647 -0.5478
 4435WAT     H218447   0.073   0.800   6.721  0.0517 -0.5464  0.4347
 4435WAT    EPW18448   0.088   0.877   6.721  0.3338 -0.3310 -0.4309
 4436WAT      O18449   6.888   6.657   6.282 -0.1109  0.6950  0.0111
 4436WAT     H118450   6.887   6.696   6.360 -0.3253  0.9541 -0.1188
 4436WAT     H218451   6.949   6.700   6.238  0.1085  0.4571  0.0815
 4436WAT    EPW18452   6.897   6.669   6.287 -0.5500 -0.1163  0.5298
 4437WAT      O18453   6.643   3.084   2.462 -0.0110 -0.0106 -0.0961
 4437WAT     H118454   6.706   3.039   2.423 -1.7896 -2.3946 -0.4632
 4437WAT     H218455   6.681   3.115   2.535  2.4079  1.5684 -1.8609
 4437WAT    EPW18456   6.658   3.082   2.467  0.0785 -0.1702 -0.0242
 4438WAT      O18457   6.067   3.818   6.466 -0.3846  0.3154 -0.0003
 4438WAT     H118458   6.095   3.739   6.491 -0.2534  0.3119 -0.1581
 4438WAT     H218459   6.035   3.853   6.540 -0.0154  0.2997  0.1690
 4438WAT    EPW18460   6.066   3.812   6.481 -0.0990 -0.4037 -0.1212
 4439WAT      O18461   4.872   4.492   4.289 -0.0026 -0.0299 -0.6487
 4439WAT     H118462   4.806   4.456   4.333  0.5993 -1.1114 -0.6192
 4439WAT     H218463   4.941   4.444   4.311  0.6558  0.5900 -1.3060
 4439WAT    EPW18464   4.872   4.480   4.299 -0.1944 -0.2186 -0.4546
 4440WAT      O18465   4.161   3.074   1.416  0.8416  0.1871  0.2032
 4440WAT     H118466   4.138   3.158   1.422  0.4817  0.0504  0.8797
 4440WAT     H218467   4.206   3.060   1.490  1.9636  0.0976 -0.4787
 4440WAT    EPW18468   4.165   3.085   1.428  0.2705  0.0011 -0.4252
 4441WAT      O18469   5.667   5.490   5.987 -0.2046  0.1434 -0.7983
 4441WAT     H118470   5.744   5.499   6.028 -0.4552  0.0196 -0.2905
 4441WAT     H218471   5.610   5.524   6.043 -0.8093 -1.7974 -0.1375
 4441WAT    EPW18472   5.670   5.496   6.002 -0.2744 -0.7300 -0.4772
 4442WAT      O18473   7.567   0.948   6.343 -0.1447 -0.1539 -0.4884
 4442WAT     H118474   7.555   1.012   6.401 -0.5474 -0.6958  0.0441
 4442WAT     H218475   7.537   0.982   6.268 -0.0003  0.4106 -0.2899
 4442WAT    EPW18476   7.561   0.962   6.340 -0.2885  0.4772 -0.1411
 4443WAT      O18477   5.231   5.969   0.074  0.1454  0.1141 -0.0104
 4443WAT     H118478   5.300   6.022   0.083  0.5072 -0.2075 -0.8286
 4443WAT     H218479   5.235   5.919   0.146  0.1607  0.7725  0.4575
 4443WAT    EPW18480   5.242   5.970   0.086 -0.0627 -0.2813  0.2550
 4444WAT      O18481   0.065   1.165   7.138 -0.1358 -0.9185  0.2162
 4444WAT     H118482  -0.015   1.138   7.162 -0.6191  0.5949  0.4422
 4444WAT     H218483   0.077   1.238   7.185  0.5892 -0.0853 -1.1815
 4444WAT    EPW18484   0.055   1.172   7.149  0.1174 -0.1346  0.5818
 4445WAT      O18485   3.791   5.819   7.381 -0.0740 -0.5000  0.3830
 4445WAT     H118486   3.863   5.800   7.335 -0.6234  0.2812 -0.8615
 4445WAT     H218487   3.786   5.754   7.439  0.9198 -1.2729 -0.3609
 4445WAT    EPW18488   3.801   5.807   7.383  0.7861 -0.1483  0.0256
 4446WAT      O18489   6.478   3.816   3.626 -0.3087 -0.3975  0.0092
 4446WAT     H118490   6.546   3.784   3.670 -1.0959  0.1965  1.7401
 4446WAT     H218491   6.499   3.802   3.543  0.5030 -3.0855  0.5808
 4446WAT    EPW18492   6.491   3.809   3.620  0.1836 -0.2778  0.1983
 4447WAT      O18493   5.871   2.041   4.715 -0.5325  0.0123 -0.1893
 4447WAT     H118494   5.953   2.049   4.686 -0.1549  0.4428  0.9395
 4447WAT     H218495   5.879   2.047   4.801 -1.9503  1.9733 -0.1249
 4447WAT    EPW18496   5.884   2.043   4.723 -0.3517 -0.2276  0.4476
 4448WAT      O18497   5.870   1.263   4.368 -0.7080 -0.4461 -0.2929
 4448WAT     H118498   5.846   1.338   4.331  0.5749  1.2471  2.0609
 4448WAT     H218499   5.807   1.249   4.427  0.8051  0.8137  1.7551
 4448WAT    EPW18500   5.857   1.272   4.371 -0.3271  0.2893  0.3134
 4449WAT      O18501   1.906   5.123   0.688  0.3496  0.4952  0.4230
 4449WAT     H118502   1.838   5.167   0.656 -0.1425 -0.5146  0.0263
 4449WAT     H218503   1.973   5.151   0.640  0.0402  0.7740  0.1451
 4449WAT    EPW18504   1.906   5.134   0.676  0.6190  0.4854 -0.0642
 4450WAT      O18505   4.894   3.761   4.311 -0.3061 -0.4670 -0.2617
 4450WAT     H118506   4.807   3.771   4.320 -0.4026  1.0747 -2.1782
 4450WAT     H218507   4.924   3.843   4.314  0.9804 -0.9013 -0.5831
 4450WAT    EPW18508   4.885   3.775   4.313 -0.2063 -0.7648 -0.7021
 4451WAT      O18509   6.260   0.375   1.921 -0.0024  0.0122  0.3830
 4451WAT     H118510   6.326   0.430   1.908 -0.3095 -0.0843 -2.1204
 4451WAT     H218511   6.253   0.333   1.844 -1.3649 -1.7536  1.4035
 4451WAT    EPW18512   6.268   0.377   1.907  0.3773  0.2646 -0.1170
 4452WAT      O18513   5.533   5.768   3.837  0.0475  0.4879 -0.0266
 4452WAT     H118514   5.562   5.820   3.774  0.8093 -1.0640 -1.0118
 4452WAT     H218515   5.601   5.717   3.856 -0.6523 -0.1627  0.8911
 4452WAT    EPW18516   5.547   5.768   3.830  0.2335  0.2010 -0.0699
 4453WAT      O18517   0.945   7.386   2.792 -0.0319  0.0567 -0.1317
 4453WAT     H118518   0.972   7.306   2.813 -0.0116 -0.3237 -1.5244
 4453WAT     H218519   0.910   7.376   2.713 -1.6917  1.0825  0.4194
 4453WAT    EPW18520   0.944   7.373   2.784  0.3968 -0.0930  0.0728
 4454WAT      O18521   4.888   3.238   0.272 -0.1879  0.2619 -0.1627
 4454WAT     H118522   4.873   3.228   0.358 -0.8273 -1.8068 -0.4646
 4454WAT     H218523   4.835   3.304   0.250 -0.3017  0.5629  0.9509
 4454WAT    EPW18524   4.878   3.247   0.281  0.5020 -0.0557  0.4612
 4455WAT      O18525   7.347   6.649   3.071  0.1724 -0.1851 -0.3968
 4455WAT     H118526   7.371   6.602   3.140  1.2806  2.0358  0.8427
 4455WAT     H218527   7.406   6.714   3.069  1.0470 -0.8379 -4.2658
 4455WAT    EPW18528   7.359   6.652   3.080 -0.2087 -0.3736  1.0197
 4456WAT      O18529   5.247   7.231   3.472  0.5917  0.2545  0.1455
 4456WAT     H118530   5.250   7.171   3.410  0.3122 -0.1302  0.5028
 4456WAT     H218531   5.325   7.224   3.512  0.6989  0.3769 -0.0398
 4456WAT    EPW18532   5.259   7.221   3.469  0.1315  0.3967 -0.3990
 4457WAT      O18533   6.058   0.620   1.540 -0.2279 -0.0222 -0.3157
 4457WAT     H118534   5.971   0.626   1.547 -0.1643 -0.5039  1.1086
 4457WAT     H218535   6.082   0.579   1.613  1.0782 -1.1462 -1.3207
 4457WAT    EPW18536   6.049   0.615   1.552  0.6805 -0.1203  0.3450
 4458WAT      O18537   5.687   4.606   3.437  0.0036 -0.3465 -0.1357
 4458WAT     H118538   5.686   4.528   3.477 -1.4363 -0.1928  0.1574
 4458WAT     H218539   5.621   4.601   3.380 -0.0272  0.6258 -0.1945
 4458WAT    EPW18540   5.677   4.593   3.434 -0.4745  0.1482  0.4853
 4459WAT      O18541   6.038   5.786   2.521 -0.0400  0.1189  0.1704
 4459WAT     H118542   6.054   5.859   2.565 -0.6370  0.2195  0.2304
 4459WAT     H218543   6.022   5.814   2.440  0.5059 -0.0162  0.0123
 4459WAT    EPW18544   6.038   5.801   2.515  0.4101  0.4512  0.4632
 4460WAT      O18545   4.127   2.773   4.648  0.4775  0.0977 -0.0633
 4460WAT     H118546   4.131   2.777   4.561  0.8900  1.7566 -0.0020
 4460WAT     H218547   4.075   2.705   4.663 -0.1389  0.1868 -1.6200
 4460WAT    EPW18548   4.120   2.764   4.637  0.3316  0.6829  0.2668
 4461WAT      O18549   6.691   2.058   5.053 -0.0511  0.4815  0.1433
 4461WAT     H118550   6.678   2.014   4.980  1.7287 -0.2660  0.2362
 4461WAT     H218551   6.724   1.999   5.108  1.1908  1.6025  0.6741
 4461WAT    EPW18552   6.694   2.043   5.051 -0.1314 -0.2242 -0.1637
 4462WAT      O18553   3.878   1.334   0.309  0.4556  0.2821 -0.1448
 4462WAT     H118554   3.809   1.383   0.292  0.1678 -0.8583 -2.7004
 4462WAT     H218555   3.941   1.368   0.258  0.9311 -0.4694 -0.0771
 4462WAT    EPW18556   3.877   1.346   0.299 -0.8200  0.4432 -0.1175
 4463WAT      O18557   4.214   2.184   6.460  0.3137  0.1623  0.1642
 4463WAT     H118558   4.164   2.131   6.507  0.4057  0.7274  0.9261
 4463WAT     H218559   4.238   2.245   6.518  1.1842  0.3620 -0.3935
 4463WAT    EPW18560   4.210   2.185   6.476  0.3487 -0.1373  0.5159
 4464WAT      O18561   2.057   2.365   3.429  0.0242  0.1581 -0.2780
 4464WAT     H118562   2.102   2.343   3.358  0.6806 -0.9107  0.4394
 4464WAT     H218563   2.044   2.451   3.420 -0.3888 -0.0525 -1.9450
 4464WAT    EPW18564   2.062   2.375   3.417 -0.4044 -0.1137  0.1264
 4465WAT      O18565   4.957   2.866   1.904 -0.0214 -0.0424  0.1910
 4465WAT     H118566   5.034   2.901   1.882  0.4732 -0.9299  0.4999
 4465WAT     H218567   4.969   2.837   1.985 -0.7508 -0.0169  0.3212
 4465WAT    EPW18568   4.970   2.867   1.913  0.7504  0.0208 -0.0508
 4466WAT      O18569   3.888   2.150   5.621 -0.1367  0.1201  0.5041
 4466WAT     H118570   3.926   2.086   5.668  0.4819  0.8218  0.9921
 4466WAT     H218571   3.952   2.175   5.567 -1.0218 -1.0814 -1.1701
 4466WAT    EPW18572   3.903   2.144   5.620 -0.4967  0.1652  0.5603
 4467WAT      O18573   6.263   0.869   1.843  0.4687 -0.4646  0.5645
 4467WAT     H118574   6.317   0.837   1.904  0.2697 -0.4995  0.7225
 4467WAT     H218575   6.277   0.955   1.846  2.1523 -0.6397 -0.9372
 4467WAT    EPW18576   6.273   0.877   1.853 -0.3071 -0.5444  0.0567
 4468WAT      O18577   3.422   1.167   7.077  0.0716 -0.4069  0.1758
 4468WAT     H118578   3.497   1.127   7.057  0.5985  0.9214 -0.6381
 4468WAT     H218579   3.383   1.176   6.999 -0.8238 -0.8453  0.5639
 4468WAT    EPW18580   3.427   1.163   7.062 -0.3257  0.1810 -0.7984
 4469WAT      O18581   6.118   6.754   2.672  0.0326 -0.1913  0.0542
 4469WAT     H118582   6.061   6.820   2.668  0.7186  0.3478 -1.6322
 4469WAT     H218583   6.067   6.684   2.682 -0.9015  0.3264 -0.8875
 4469WAT    EPW18584   6.102   6.754   2.673 -0.5920 -0.3113  0.0954
 4470WAT      O18585   3.613   4.874   0.012  0.3761 -0.5590 -0.2266
 4470WAT     H118586   3.692   4.900   0.039  0.6917 -2.6387  1.0489
 4470WAT     H218587   3.575   4.948  -0.015  2.3441  0.6559  0.1662
 4470WAT    EPW18588   3.619   4.889   0.012  0.3612 -0.0463  0.8665
 4471WAT      O18589   3.476   1.377   4.614  0.4946 -0.0530  0.0216
 4471WAT     H118590   3.427   1.305   4.606  1.0040 -0.3215 -0.7554
 4471WAT     H218591   3.451   1.426   4.547 -0.5446  0.9390  1.0896
 4471WAT    EPW18592   3.465   1.373   4.603 -0.4430  0.2942  0.8526
 4472WAT      O18593   0.689   5.355   5.393  0.5571  0.0335  0.7476
 4472WAT     H118594   0.724   5.297   5.448 -0.1208 -0.1938  0.9518
 4472WAT     H218595   0.732   5.340   5.319  2.2677  1.0829  1.4578
 4472WAT    EPW18596   0.700   5.344   5.390 -0.3025 -0.7079  0.4725
 4473WAT      O18597   3.530   6.022   5.200  0.6577  0.1062 -0.2302
 4473WAT     H118598   3.599   6.057   5.241 -0.0943  0.2112  0.9890
 4473WAT     H218599   3.469   6.018   5.262  0.2388 -2.0286 -0.7146
 4473WAT    EPW18600   3.531   6.027   5.215  0.2529 -0.1064 -0.0979
 4474WAT      O18601   7.461   2.716   0.627 -0.2895  0.3135 -0.2438
 4474WAT     H118602   7.532   2.724   0.576  0.7300  0.0252  1.0786
 4474WAT     H218603   7.492   2.733   0.707 -1.7266  0.1570  0.3654
 4474WAT    EPW18604   7.476   2.720   0.631 -0.3563  0.4003  0.8209
 4475WAT      O18605   4.604   6.446   5.496 -0.1957  0.5662 -0.0633
 4475WAT     H118606   4.518   6.439   5.485 -0.1284 -1.0869  0.2019
 4475WAT     H218607   4.638   6.419   5.421  0.1128  1.0606 -0.1128
 4475WAT    EPW18608   4.596   6.441   5.483  0.2573  0.4169  0.2929
 4476WAT      O18609   5.016   5.246   4.717 -0.4127 -0.1093 -0.2852
 4476WAT     H118610   5.068   5.301   4.761  3.1047 -3.5606  0.3748
 4476WAT     H218611   4.963   5.215   4.779  0.7740 -0.8433  0.3957
 4476WAT    EPW18612   5.016   5.249   4.733  0.6002 -0.6851  0.1108
 4477WAT      O18613   4.419   2.690   6.274  0.1376  0.1345 -0.4702
 4477WAT     H118614   4.486   2.647   6.310 -0.0479  0.2356  0.0048
 4477WAT     H218615   4.383   2.631   6.220  1.3177  0.4371 -1.6577
 4477WAT    EPW18616   4.423   2.675   6.271 -0.1930 -0.3438 -0.0831
 4478WAT      O18617   1.170   4.345   7.499 -0.4041 -0.0305  0.6853
 4478WAT     H118618   1.234   4.403   7.511  0.0213 -0.8294  2.6136
 4478WAT     H218619   1.110   4.367   7.559 -1.7915  0.4492 -0.8108
 4478WAT    EPW18620   1.170   4.357   7.510  0.0136  0.2034 -0.2459
 4479WAT      O18621   4.482   1.130   2.666  0.3452 -0.3562  0.6014
 4479WAT     H118622   4.462   1.131   2.751  0.4722 -1.6334  0.6642
 4479WAT     H218623   4.560   1.169   2.663  2.3140 -3.7729  1.6793
 4479WAT    EPW18624   4.490   1.136   2.678  0.3245  0.6492  0.2041
 4480WAT      O18625   5.565   2.636   0.832 -0.4623  0.1836  0.2492
 4480WAT     H118626   5.581   2.711   0.874 -1.1353  0.1722  0.5419
 4480WAT     H218627   5.628   2.583   0.859  2.1213  1.5312 -2.4339
 4480WAT    EPW18628   5.577   2.639   0.842  0.3447  0.0716  0.3271
 4481WAT      O18629   2.889   1.055   2.750 -0.1425 -0.0483  0.0593
 4481WAT     H118630   2.822   1.040   2.804  1.4657 -0.6764  2.0223
 4481WAT     H218631   2.877   0.998   2.685 -1.7258  0.1890  0.1161
 4481WAT    EPW18632   2.877   1.045   2.748  0.2921 -0.4755 -0.0602
 4482WAT      O18633   4.894   7.485   4.108  0.3502  0.1030  0.0010
 4482WAT     H118634   4.922   7.434   4.044  0.5832  1.7389 -1.2626
 4482WAT     H218635   4.811   7.500   4.088  1.0875  2.8538 -1.6058
 4482WAT    EPW18636   4.886   7.480   4.096  0.4081  1.0916  0.6780
 4483WAT      O18637   4.321   7.033   6.350  0.0880 -0.1004 -0.4133
 4483WAT     H118638   4.289   7.069   6.423  1.0480 -1.1199  0.5474
 4483WAT     H218639   4.374   7.095   6.318  0.3826  0.0171  0.2804
 4483WAT    EPW18640   4.324   7.048   6.356 -0.3590 -0.1263  0.6660
 4484WAT      O18641   5.042   3.362   7.008 -0.3567  0.1967 -0.4135
 4484WAT     H118642   4.977   3.406   7.045  0.5215  0.5490  0.7832
 4484WAT     H218643   5.043   3.392   6.926 -1.5923  0.2854 -0.4056
 4484WAT    EPW18644   5.033   3.373   7.001  0.2449  0.1400  0.2788
 4485WAT      O18645   0.154   4.606   1.620 -0.4055  0.1557  0.1670
 4485WAT     H118646   0.164   4.613   1.534  0.5792  0.8816  0.3199
 4485WAT     H218647   0.156   4.689   1.647 -1.9288  0.0202  0.7778
 4485WAT    EPW18648   0.156   4.620   1.611  0.1344 -0.0079  0.1321
 4486WAT      O18649   4.602   5.348   4.053 -0.0384  0.3031  0.0937
 4486WAT     H118650   4.667   5.368   3.998 -0.1380 -0.9138 -0.4813
 4486WAT     H218651   4.620   5.267   4.078 -1.9362 -0.5197 -0.9997
 4486WAT    EPW18652   4.614   5.339   4.048 -0.0529  0.0872 -0.2108
 4487WAT      O18653   1.995   6.550   1.878  0.5406  0.0031  0.3257
 4487WAT     H118654   2.018   6.603   1.813  0.4165 -2.2240 -1.6533
 4487WAT     H218655   1.955   6.484   1.838 -1.5794 -0.4386  2.8921
 4487WAT    EPW18656   1.993   6.548   1.863 -0.2025  0.5098  0.4749
 4488WAT      O18657   5.702   6.027   6.580  0.7463 -0.0696  0.1332
 4488WAT     H118658   5.617   6.022   6.599  0.6792 -2.0451 -0.4470
 4488WAT     H218659   5.740   6.017   6.658  0.4427 -0.0814  0.2832
 4488WAT    EPW18660   5.695   6.025   6.594  0.1984  0.0739 -0.5392
 4489WAT      O18661   2.281   0.681   0.864  0.0562 -0.5139  0.3004
 4489WAT     H118662   2.251   0.744   0.812 -1.4332 -0.1700  1.5119
 4489WAT     H218663   2.281   0.611   0.813  0.6523  0.2162 -0.7451
 4489WAT    EPW18664   2.277   0.680   0.849  0.8160 -0.1634  0.4065
 4490WAT      O18665   6.142   4.230   7.080 -0.0169  0.7093 -0.3017
 4490WAT     H118666   6.226   4.207   7.092  0.1117  1.0160 -0.5864
 4490WAT     H218667   6.148   4.307   7.040 -0.4346  0.3062 -1.1646
 4490WAT    EPW18668   6.156   4.238   7.076  0.3925  0.1845 -0.0738
 4491WAT      O18669   7.163   0.507   3.414 -0.3529 -0.0303 -0.7010
 4491WAT     H118670   7.188   0.439   3.463 -1.4673 -0.9108 -1.3123
 4491WAT     H218671   7.235   0.526   3.368 -0.3852 -1.7140 -1.5260
 4491WAT    EPW18672   7.178   0.500   3.414  0.2055 -0.5637 -0.6226
 4492WAT      O18673   2.261   0.569   6.412  0.3428  0.1715 -0.5524
 4492WAT     H118674   2.279   0.653   6.396 -0.3100  0.3264 -0.4823
 4492WAT     H218675   2.185   0.556   6.372 -0.7224  0.2455  1.3187
 4492WAT    EPW18676   2.253   0.580   6.404  0.5284 -0.9893  0.2680
 4493WAT      O18677   5.426   2.882   3.673 -0.2499  0.4917  0.2966
 4493WAT     H118678   5.426   2.844   3.752 -1.8763 -1.6894 -0.6457
 4493WAT     H218679   5.353   2.930   3.674 -0.4638  0.1794  0.0265
 4493WAT    EPW18680   5.415   2.884   3.685 -0.6438  0.2191  0.3618
 4494WAT      O18681   5.025   2.553   5.451  0.4767  0.5491 -0.2895
 4494WAT     H118682   4.989   2.502   5.390 -0.2686 -0.5482  0.9994
 4494WAT     H218683   4.957   2.593   5.487  0.5691 -0.7849  1.5038
 4494WAT    EPW18684   5.010   2.551   5.447 -0.0889 -0.5017 -0.1007
 4495WAT      O18685   2.344   7.066   3.733  0.5885 -0.0417 -0.3995
 4495WAT     H118686   2.303   7.048   3.808  3.3727 -0.9763  1.0284
 4495WAT     H218687   2.314   7.005   3.678 -0.7694  0.0509  0.1949
 4495WAT    EPW18688   2.334   7.054   3.736 -0.0802  0.6586 -0.0850
 4496WAT      O18689   6.251   5.886   0.049  1.0056  0.8071 -0.1084
 4496WAT     H118690   6.244   5.969   0.075  2.6849  0.2913  2.3536
 4496WAT     H218691   6.184   5.846   0.088  1.2331  0.7053  0.1801
 4496WAT    EPW18692   6.240   5.892   0.059 -0.2568  0.2380  0.2908
 4497WAT      O18693   6.045   1.094   2.751 -0.3201 -0.3872  0.2014
 4497WAT     H118694   6.060   1.141   2.823 -0.2659 -0.1588  0.0414
 4497WAT     H218695   6.091   1.136   2.689 -1.0757 -0.0621 -0.1566
 4497WAT    EPW18696   6.054   1.107   2.753 -0.2114 -0.2021  0.2477
 4498WAT      O18697   4.598   1.864   6.716  0.3454 -0.2025 -0.2210
 4498WAT     H118698   4.653   1.799   6.699  0.6013  0.2370 -1.1212
 4498WAT     H218699   4.534   1.852   6.658  1.3842  1.5082 -1.8217
 4498WAT    EPW18700   4.597   1.852   6.705  0.4322  0.6321  0.4228
 4499WAT      O18701   2.772   3.098   6.155  0.0948  0.6215  0.0414
 4499WAT     H118702   2.831   3.067   6.211 -1.6791 -0.2329  1.5250
 4499WAT     H218703   2.787   3.053   6.082 -0.1677 -1.3148  1.1045
 4499WAT    EPW18704   2.783   3.087   6.152 -0.3092  0.2720 -0.0917
 4500WAT      O18705   3.690   5.386   6.013  0.0278 -0.0277 -0.1175
 4500WAT     H118706   3.658   5.435   5.948 -2.3837 -0.4882  0.6192
 4500WAT     H218707   3.658   5.307   5.996  0.6202 -0.4816  0.8180
 4500WAT    EPW18708   3.680   5.382   6.001 -0.0066  0.5044  0.9705
 4501WAT      O18709   5.530   3.056   4.956  0.5444  0.2484  0.0780
 4501WAT     H118710   5.527   3.135   4.993  0.0857 -0.9546  2.8446
 4501WAT     H218711   5.459   3.054   4.906 -0.0141  1.2172  0.8024
 4501WAT    EPW18712   5.519   3.067   4.954 -0.0166 -0.5439 -0.3333
 4502WAT      O18713   3.285   4.464   6.341 -0.5527  0.0791 -0.8695
 4502WAT     H118714   3.226   4.406   6.370 -1.5327  0.1890 -2.4810
 4502WAT     H218715   3.285   4.451   6.255  1.5516  0.3534 -0.9664
 4502WAT    EPW18716   3.276   4.453   6.333  0.2052  0.4415  1.0077
 4503WAT      O18717   4.832   7.270   2.249 -0.6620 -0.6908  0.1675
 4503WAT     H118718   4.806   7.353   2.251 -2.3315 -1.1820  0.3919
 4503WAT     H218719   4.919   7.276   2.261 -0.3871  1.1170 -1.9751
 4503WAT    EPW18720   4.841   7.283   2.251 -0.0503  0.7435  0.3467
 4504WAT      O18721   1.298   5.636   6.726 -0.2474 -0.6532  0.4220
 4504WAT     H118722   1.294   5.549   6.719 -0.5016 -0.5548 -1.0874
 4504WAT     H218723   1.276   5.651   6.809 -1.4381 -1.9744  0.3967
 4504WAT    EPW18724   1.294   5.625   6.737 -0.7122  0.0692 -0.0656
 4505WAT      O18725   4.723   2.927   5.413  0.2952  0.1661 -0.2916
 4505WAT     H118726   4.803   2.958   5.429 -0.2361  2.1496 -1.2182
 4505WAT     H218727   4.699   2.968   5.340 -1.0758 -1.4005 -0.7938
 4505WAT    EPW18728   4.732   2.937   5.404 -0.3685 -0.5479  0.2565
 4506WAT      O18729   3.582   3.427   0.166  0.1627 -0.0829 -0.0827
 4506WAT     H118730   3.570   3.358   0.114 -1.1898  1.4698 -2.0059
 4506WAT     H218731   3.602   3.491   0.110 -1.2741  1.6738  1.2828
 4506WAT    EPW18732   3.583   3.426   0.150 -0.6823  0.9790 -0.2934
 4507WAT      O18733   5.597   1.338   4.115  0.6997 -0.1795  0.0223
 4507WAT     H118734   5.671   1.377   4.139 -0.3681  0.5981  2.2711
 4507WAT     H218735   5.536   1.400   4.123 -0.4202 -1.1595 -0.4983
 4507WAT    EPW18736   5.599   1.353   4.119 -0.2845 -0.1276 -0.0550
 4508WAT      O18737   4.905   6.200   5.627 -0.5625 -0.7280 -0.0031
 4508WAT     H118738   4.820   6.216   5.638 -0.7437 -1.9735  0.5155
 4508WAT     H218739   4.942   6.236   5.697 -0.9490 -2.3058  1.0672
 4508WAT    EPW18740   4.898   6.208   5.639  0.5772  0.4324 -0.2886
 4509WAT      O18741   0.841   2.108   7.064 -0.0281  0.0584 -0.0600
 4509WAT     H118742   0.780   2.167   7.043  0.3450  0.1018 -1.1312
 4509WAT     H218743   0.812   2.034   7.027 -0.1638 -0.2756  0.7031
 4509WAT    EPW18744   0.828   2.106   7.055  0.1921 -0.4198  0.0461
 4510WAT      O18745   7.318   1.497   5.315  0.3522  0.4330 -0.7336
 4510WAT     H118746   7.285   1.568   5.276 -1.3309  1.5007  2.3448
 4510WAT     H218747   7.358   1.529   5.385  0.2161 -1.6093  0.3421
 4510WAT    EPW18748   7.319   1.512   5.319  0.2403  0.0935 -0.0251
 4511WAT      O18749   2.725   7.066   5.925  0.0465 -0.0067  0.6498
 4511WAT     H118750   2.749   6.992   5.885 -1.9909  0.0929 -0.9062
 4511WAT     H218751   2.734   7.047   6.009  1.9424 -1.1461  0.2650
 4511WAT    EPW18752   2.730   7.053   5.931  0.0941  0.1987  0.6327
 4512WAT      O18753   4.387   2.386   2.630  0.0822  0.6220 -0.3632
 4512WAT     H118754   4.373   2.472   2.630 -1.7569  0.3597 -1.2007
 4512WAT     H218755   4.434   2.373   2.557  0.4666  0.9186 -0.1725
 4512WAT    EPW18756   4.392   2.397   2.619 -0.3975  0.5771  0.3480
 4513WAT      O18757   1.088   0.118   3.613  0.2695  0.1513  0.2480
 4513WAT     H118758   1.134   0.187   3.584  0.3785 -0.5231 -1.2979
 4513WAT     H218759   1.019   0.154   3.652 -0.1920  1.1641 -1.3989
 4513WAT    EPW18760   1.085   0.133   3.614 -0.0494  0.2426 -0.3328
 4514WAT      O18761   7.443   5.540   1.960 -0.3477 -0.0097  0.0921
 4514WAT     H118762   7.389   5.562   1.895 -0.6282 -0.0273  0.3154
 4514WAT     H218763   7.495   5.479   1.925 -0.5710 -0.0998 -0.0806
 4514WAT    EPW18764   7.443   5.534   1.945 -0.3241 -0.5194 -0.6686
 4515WAT      O18765   7.621   3.573   6.734 -0.0214 -0.2762  0.5566
 4515WAT     H118766   7.625   3.649   6.691 -1.5130 -0.6199 -0.2643
 4515WAT     H218767   7.548   3.580   6.780  0.9331 -0.4051  2.1548
 4515WAT    EPW18768   7.611   3.585   6.734 -0.4439 -0.2504  0.0905
 4516WAT      O18769   3.722   2.198   0.938 -0.2137 -0.1063  0.3103
 4516WAT     H118770   3.772   2.162   0.877 -0.0095  0.5467  0.0858
 4516WAT     H218771   3.717   2.137   1.000 -1.2239 -1.1614 -0.7720
 4516WAT    EPW18772   3.729   2.184   0.938  0.3581  0.1648 -0.1925
 4517WAT      O18773   0.712   4.738   3.729  0.1453 -0.3615  0.6986
 4517WAT     H118774   0.695   4.815   3.766  0.8294 -0.0727  0.4290
 4517WAT     H218775   0.799   4.730   3.737  0.4136 -0.0141 -1.3184
 4517WAT    EPW18776   0.723   4.748   3.735  0.0938  0.2172 -0.4468
 4518WAT      O18777   2.988   5.269   4.475 -0.1517  0.1010 -0.1042
 4518WAT     H118778   3.049   5.309   4.522 -0.6255  0.7982 -0.0739
 4518WAT     H218779   3.024   5.262   4.396  0.7050 -1.2032  0.3616
 4518WAT    EPW18780   3.002   5.274   4.470  0.1257 -0.2961  0.4476
 4519WAT      O18781   6.285   3.306   0.306 -0.3982 -0.0151 -0.3886
 4519WAT     H118782   6.353   3.279   0.259 -0.5403  0.3589 -0.8148
 4519WAT     H218783   6.304   3.390   0.324 -0.2100 -0.2333  0.4644
 4519WAT    EPW18784   6.298   3.315   0.302  0.0326  0.0465 -0.0649
 4520WAT      O18785   1.147   5.391   5.703 -0.5894 -0.6618  0.0235
 4520WAT     H118786   1.205   5.444   5.741 -0.0767 -0.8351 -0.4928
 4520WAT     H218787   1.070   5.418   5.733 -0.6131  1.9747 -2.0714
 4520WAT    EPW18788   1.144   5.403   5.713 -0.2223  0.0957  0.8387
 4521WAT      O18789   6.611   1.221   6.591 -0.1746 -0.0551 -0.2902
 4521WAT     H118790   6.552   1.272   6.632 -1.3389 -0.0958 -1.8223
 4521WAT     H218791   6.687   1.250   6.621 -0.8541  1.8084 -0.2212
 4521WAT    EPW18792   6.613   1.232   6.602  0.2623 -0.2363  0.6141
 4522WAT      O18793   6.198   3.256   4.145 -0.4089 -0.2926 -0.6684
 4522WAT     H118794   6.283   3.251   4.160 -0.5739 -1.7830 -0.1133
 4522WAT     H218795   6.172   3.321   4.198 -0.1262 -2.0245  1.7715
 4522WAT    EPW18796   6.207   3.265   4.155 -0.0052 -0.2696 -0.3970
 4523WAT      O18797   5.599   0.864   3.856  0.5075  0.0308  0.3351
 4523WAT     H118798   5.636   0.865   3.934 -0.8707  1.5058  1.0367
 4523WAT     H218799   5.633   0.794   3.817  0.5698 -1.2642  2.5765
 4523WAT    EPW18800   5.609   0.854   3.862  0.3023 -0.0321 -0.3989
 4524WAT      O18801   5.489   2.282   0.992  0.1162 -0.6791 -0.3611
 4524WAT     H118802   5.501   2.321   1.070  2.0342 -1.5207 -0.1627
 4524WAT     H218803   5.529   2.336   0.936 -3.8401  1.5562 -1.4075
 4524WAT    EPW18804   5.497   2.296   0.995 -0.1505 -0.1587  0.1247
 4525WAT      O18805   4.456   1.846   5.805  0.6258  0.4159  0.4389
 4525WAT     H118806   4.476   1.774   5.850  0.2370 -1.6769 -2.3884
 4525WAT     H218807   4.530   1.891   5.803  1.7003 -1.2650  0.1381
 4525WAT    EPW18808   4.470   1.842   5.811 -0.1618  0.5643  0.0881
 4526WAT      O18809   7.520   2.448   4.919  1.0409  0.3605  0.4094
 4526WAT     H118810   7.467   2.516   4.908 -2.2731 -2.1334 -0.5461
 4526WAT     H218811   7.497   2.393   4.855  1.1281 -3.0297  3.0096
 4526WAT    EPW18812   7.509   2.450   4.908 -0.0197  0.6936 -0.0479
 4527WAT      O18813   5.346   7.204   6.215 -0.3484  0.8568  0.2938
 4527WAT     H118814   5.346   7.275   6.163 -3.5963 -0.2204 -1.4294
 4527WAT     H218815   5.383   7.143   6.165 -1.8522  0.2596 -0.1457
 4527WAT    EPW18816   5.352   7.206   6.200  0.2817  0.2799  0.1919
 4528WAT      O18817   4.600   1.550   0.939  0.1970 -0.0542 -0.1134
 4528WAT     H118818   4.620   1.472   0.971 -0.0208 -0.1663 -0.2468
 4528WAT     H218819   4.677   1.590   0.930  0.5315 -0.9797 -1.9293
 4528WAT    EPW18820   4.614   1.544   0.942  0.0585  0.1496  0.8728
 4529WAT      O18821   3.812   4.226   1.296 -0.4631 -0.2098  0.2864
 4529WAT     H118822   3.814   4.141   1.315  2.5569 -0.2513  0.1443
 4529WAT     H218823   3.869   4.261   1.351 -0.9021  1.5953 -0.3518
 4529WAT    EPW18824   3.820   4.218   1.307 -0.3775  0.0686 -0.3251
 4530WAT      O18825   4.630   5.728   1.012 -0.3149  0.1540 -0.1693
 4530WAT     H118826   4.716   5.723   0.995 -0.0388 -0.3766  1.2294
 4530WAT     H218827   4.617   5.814   1.027  0.3028  0.0677  1.0299
 4530WAT    EPW18828   4.641   5.740   1.012 -0.2846 -0.2730 -0.6404
 4531WAT      O18829   7.354   3.262   1.304  0.4549  0.6577  0.1493
 4531WAT     H118830   7.269   3.261   1.285  1.0544 -0.5883 -2.9753
 4531WAT     H218831   7.367   3.185   1.345  0.0870  0.8318  0.5906
 4531WAT    EPW18832   7.344   3.250   1.307  0.4272  0.1111 -0.6508
 4532WAT      O18833   2.834   4.378   5.878 -0.1199 -0.0760  0.2816
 4532WAT     H118834   2.842   4.352   5.961  0.3329  0.2244  0.3355
 4532WAT     H218835   2.905   4.427   5.865 -0.2108 -0.0842 -0.2692
 4532WAT    EPW18836   2.846   4.381   5.888 -0.3172  0.2461  0.1918
 4533WAT      O18837   4.586   0.023   5.173 -0.6200 -0.2359  0.3708
 4533WAT     H118838   4.663   0.054   5.200  0.9460 -3.0256 -0.4432
 4533WAT     H218839   4.553  -0.016   5.244 -1.5659  1.3156  0.8328
 4533WAT    EPW18840   4.593   0.022   5.187  0.3935  0.8355 -0.0853
 4534WAT      O18841   5.745   7.187   6.000 -0.1290 -0.9811 -0.6415
 4534WAT     H118842   5.823   7.216   6.025  0.3130 -2.6441  0.0690
 4534WAT     H218843   5.695   7.198   6.071 -0.0063 -1.7537 -0.4304
 4534WAT    EPW18844   5.749   7.193   6.015  0.4396  0.5732  0.1074
 4535WAT      O18845   0.217   1.018   6.512  0.5311  0.2815 -0.3778
 4535WAT     H118846   0.303   1.006   6.514  0.5733  0.6511  0.4353
 4535WAT     H218847   0.188   0.972   6.580  0.4505  2.6756  1.3548
 4535WAT    EPW18848   0.226   1.010   6.522  0.2916 -0.1210 -0.0292
 4536WAT      O18849   0.235   1.349   1.281  0.4325 -0.0812  0.0835
 4536WAT     H118850   0.292   1.411   1.306  2.4399 -2.4291  1.8301
 4536WAT     H218851   0.217   1.371   1.198  3.3772  1.2064 -0.3665
 4536WAT    EPW18852   0.241   1.362   1.273  0.2865 -0.4462 -0.2854
 4537WAT      O18853   6.140   5.035   5.455  0.6502 -0.3641 -0.5525
 4537WAT     H118854   6.125   4.986   5.385 -0.0436  0.1635 -0.7870
 4537WAT     H218855   6.126   4.981   5.522  0.0737 -0.5303 -0.8058
 4537WAT    EPW18856   6.136   5.020   5.455 -0.1011  0.2253 -0.5705
 4538WAT      O18857   0.778   1.513   0.297  0.0181 -0.2327 -0.3255
 4538WAT     H118858   0.865   1.513   0.300  0.0644 -2.6516  0.8021
 4538WAT     H218859   0.757   1.593   0.323  1.9079  0.1209  0.2791
 4538WAT    EPW18860   0.788   1.525   0.301  0.2139  0.2781 -0.1481
 4539WAT      O18861   3.787   0.896   5.854  0.1960  0.4391 -0.0430
 4539WAT     H118862   3.860   0.888   5.901  1.3243  0.9093 -1.6161
 4539WAT     H218863   3.784   0.822   5.808 -0.5035  0.2900  0.2264
 4539WAT    EPW18864   3.797   0.884   5.854  0.2664 -0.4766 -0.4148
 4540WAT      O18865   4.176   6.664   0.161  0.3732  0.6102 -0.2106
 4540WAT     H118866   4.120   6.718   0.202  1.4897  1.5942  0.0682
 4540WAT     H218867   4.254   6.690   0.190  0.9305 -1.5441  0.3477
 4540WAT    EPW18868   4.179   6.676   0.171  0.7551 -0.3677 -0.0626
 4541WAT      O18869   0.889   1.650   2.748  0.0289 -0.4153 -0.2586
 4541WAT     H118870   0.861   1.654   2.831  2.6171  0.2632  0.6893
 4541WAT     H218871   0.922   1.569   2.742  0.7356 -0.1265 -0.3003
 4541WAT    EPW18872   0.890   1.638   2.759 -0.1201 -0.3500  0.0403
 4542WAT      O18873   1.863   1.306   1.870 -0.1404  0.5446  0.0473
 4542WAT     H118874   1.940   1.346   1.873 -1.2501  2.8395  0.7591
 4542WAT     H218875   1.820   1.349   1.808 -0.6551 -1.1702 -0.8414
 4542WAT    EPW18876   1.868   1.318   1.861 -0.6249  0.0748  0.1878
 4543WAT      O18877   4.646   3.771   4.899  0.2054  0.1000 -0.3256
 4543WAT     H118878   4.715   3.759   4.951 -1.1227 -1.6896  1.1521
 4543WAT     H218879   4.600   3.834   4.939 -0.5317 -0.8834  0.4327
 4543WAT    EPW18880   4.649   3.779   4.913  0.3481  0.0934 -0.5276
 4544WAT      O18881   6.065   3.828   6.041  0.0373 -0.1441  0.0786
 4544WAT     H118882   6.004   3.859   5.987  0.3075  0.1119 -0.0874
 4544WAT     H218883   6.021   3.807   6.113 -0.1411  0.7854  0.2560
 4544WAT    EPW18884   6.050   3.830   6.043  0.3734 -1.2638  0.1493
 4545WAT      O18885   7.325   0.129   5.791 -0.2761 -0.0561  0.4473
 4545WAT     H118886   7.382   0.064   5.800  0.0949 -0.0188 -1.3646
 4545WAT     H218887   7.255   0.101   5.837  0.3689 -1.0940  0.8261
 4545WAT    EPW18888   7.323   0.116   5.799 -0.1762  0.0433 -0.3633
 4546WAT      O18889   1.496   0.365   0.009  0.2533  0.4184  0.2252
 4546WAT     H118890   1.520   0.414   0.077 -0.6665  1.0283  0.1292
 4546WAT     H218891   1.569   0.362  -0.040  0.1641  2.2882 -0.0995
 4546WAT    EPW18892   1.511   0.372   0.012  0.5613 -0.2579  0.0278
 4547WAT      O18893   6.105   4.515   2.192 -0.0546  0.0678 -0.3263
 4547WAT     H118894   6.094   4.582   2.247  2.1394  0.9247 -0.8471
 4547WAT     H218895   6.155   4.460   2.237  2.1046  0.9551 -1.5062
 4547WAT    EPW18896   6.111   4.517   2.207 -0.4094 -0.3526 -0.1702
 4548WAT      O18897   3.105   1.277   2.523 -1.2291 -0.2942 -0.3104
 4548WAT     H118898   3.164   1.337   2.545 -0.6147 -0.7879 -0.5746
 4548WAT     H218899   3.117   1.213   2.581 -0.7500 -0.8701 -1.0269
 4548WAT    EPW18900   3.115   1.277   2.535  0.4765  0.0011  0.0235
 4549WAT      O18901   3.945   0.626   6.405 -0.4887  0.0283 -0.0473
 4549WAT     H118902   3.901   0.702   6.405 -0.1578  0.2215  0.1331
 4549WAT     H218903   3.942   0.600   6.322  0.1575  0.6828 -0.2847
 4549WAT    EPW18904   3.938   0.633   6.393 -0.4098 -0.3568  0.1493
 4550WAT      O18905   0.192   3.184   2.216 -0.0752  0.1356  0.2958
 4550WAT     H118906   0.210   3.121   2.158 -1.0126 -1.1899  1.3844
 4550WAT     H218907   0.124   3.152   2.261 -0.4811  1.8738  0.9902
 4550WAT    EPW18908   0.185   3.170   2.214 -0.1229 -0.2019  0.0168
 4551WAT      O18909   1.335   2.505   6.624 -0.2930  0.0140 -0.0711
 4551WAT     H118910   1.310   2.560   6.561  1.7703  0.4025 -0.6583
 4551WAT     H218911   1.403   2.546   6.660 -1.0135 -0.5146  1.9941
 4551WAT    EPW18912   1.342   2.519   6.620 -0.1419 -0.5267 -0.5919
 4552WAT      O18913   5.273   1.416   6.253 -0.7554 -0.2521  0.1383
 4552WAT     H118914   5.329   1.428   6.187 -0.2530  0.0938  0.6245
 4552WAT     H218915   5.195   1.425   6.214 -0.4907 -0.9255 -0.5775
 4552WAT    EPW18916   5.270   1.419   6.237  0.0966  0.0323 -0.0525
 4553WAT      O18917   4.039   0.229   3.095 -0.3071 -0.5862 -0.1281
 4553WAT     H118918   4.002   0.236   3.016 -0.1221 -0.3826 -0.1990
 4553WAT     H218919   4.124   0.244   3.079 -0.5542  2.0326  0.4579
 4553WAT    EPW18920   4.046   0.233   3.081  0.1765 -0.1036  0.0930
 4554WAT      O18921   2.146   3.766   2.626  0.1561 -0.2794  0.5655
 4554WAT     H118922   2.151   3.687   2.661  0.6120 -0.4233  0.1743
 4554WAT     H218923   2.229   3.791   2.619  0.0674 -0.2140 -0.3216
 4554WAT    EPW18924   2.159   3.758   2.630  0.3069  0.6252 -0.2806
 4555WAT      O18925   4.924   1.595   1.822 -0.2872  0.0709  0.2094
 4555WAT     H118926   4.915   1.634   1.900 -0.7069 -0.9442  0.6909
 4555WAT     H218927   4.875   1.644   1.769 -0.5604  0.3726  0.7293
 4555WAT    EPW18928   4.916   1.608   1.826 -0.3306  0.3014  0.0180
 4556WAT      O18929   6.173   7.502   2.743 -0.0311 -0.0409 -0.0520
 4556WAT     H118930   6.117   7.436   2.757 -0.4365 -0.0589 -1.5090
 4556WAT     H218931   6.209   7.515   2.821 -1.1684 -0.8623  0.6591
 4556WAT    EPW18932   6.170   7.494   2.756 -0.0406  0.1861  0.2283
 4557WAT      O18933   7.196   4.470   2.309  0.1143  0.5192  0.5767
 4557WAT     H118934   7.119   4.429   2.310  0.5331 -0.2853  0.8826
 4557WAT     H218935   7.254   4.405   2.304  0.7811  1.1085  0.4681
 4557WAT    EPW18936   7.193   4.454   2.309  0.6237  0.7770 -0.1961
 4558WAT      O18937   6.665   0.732   6.294  0.0844 -0.5549  0.5918
 4558WAT     H118938   6.620   0.658   6.294  1.5052 -1.7108 -3.6111
 4558WAT     H218939   6.748   0.705   6.288  0.6185  1.2763 -1.4423
 4558WAT    EPW18940   6.671   0.717   6.293  0.1820 -0.4710  0.5999
 4559WAT      O18941   0.966   7.535   6.066  0.5111  0.5606 -0.6751
 4559WAT     H118942   1.027   7.473   6.064  1.6775  1.6458 -0.3434
 4559WAT     H218943   0.984   7.584   5.995  0.5272  1.3196 -0.1640
 4559WAT    EPW18944   0.978   7.533   6.055 -0.0052 -0.3900 -0.2828
 4560WAT      O18945   3.605   4.966   0.889 -0.0237 -0.4860  0.1922
 4560WAT     H118946   3.618   5.043   0.928  2.0614 -0.4151 -0.5320
 4560WAT     H218947   3.524   4.972   0.856 -0.2158  1.0379  0.8925
 4560WAT    EPW18948   3.595   4.978   0.890 -0.1798 -0.3534 -0.0311
 4561WAT      O18949   7.056   5.244   3.545  0.2390 -0.0812 -0.3291
 4561WAT     H118950   7.028   5.253   3.463 -0.4372  1.5828  0.0391
 4561WAT     H218951   6.987   5.210   3.587  0.9201 -1.9245 -0.6008
 4561WAT    EPW18952   7.042   5.240   3.539 -0.5886  0.2086  0.2662
 4562WAT      O18953   0.022   5.168   6.247 -0.1866  0.2971 -0.1328
 4562WAT     H118954   0.078   5.224   6.285 -0.6747  0.6804  0.0399
 4562WAT     H218955   0.061   5.147   6.172  0.2956  0.3777  0.0949
 4562WAT    EPW18956   0.036   5.173   6.242  0.1701 -0.7528  0.8313
 4563WAT      O18957   7.649   2.322   3.169  0.6541 -0.0047  0.0161
 4563WAT     H118958   7.581   2.375   3.157  0.6483 -0.0997 -0.3656
 4563WAT     H218959   7.691   2.323   3.093  0.5945 -0.6365 -0.0328
 4563WAT    EPW18960   7.645   2.330   3.156  0.7166  0.1374  0.6010
 4564WAT      O18961   0.292   6.667   0.692  0.1085 -0.1419 -0.0528
 4564WAT     H118962   0.313   6.750   0.677 -0.4225 -0.2502 -1.4832
 4564WAT     H218963   0.249   6.671   0.768 -1.2334  1.1419 -0.8232
 4564WAT    EPW18964   0.289   6.680   0.701  0.6376  0.0237 -0.5094
 4565WAT      O18965   7.551   1.822   4.156  0.6516 -0.5239  0.0811
 4565WAT     H118966   7.500   1.890   4.178 -0.7164 -1.2409 -0.7788
 4565WAT     H218967   7.617   1.828   4.213 -1.6016 -1.0073  3.0060
 4565WAT    EPW18968   7.553   1.833   4.168 -0.5910  0.2572  0.0894
 4566WAT      O18969   1.493   0.512   2.766 -0.8627  0.1674 -0.2038
 4566WAT     H118970   1.464   0.503   2.684 -1.3337  1.7295 -0.2400
 4566WAT     H218971   1.572   0.547   2.755 -1.2191  1.0451  0.0264
 4566WAT    EPW18972   1.501   0.516   2.752  0.6562 -0.3194 -0.1677
 4567WAT      O18973   7.579   7.334   1.310  0.6999 -0.1848 -0.0539
 4567WAT     H118974   7.640   7.397   1.308 -1.4335  2.1828  1.8371
 4567WAT     H218975   7.622   7.265   1.341  2.4676  1.3797  1.2525
 4567WAT    EPW18976   7.595   7.333   1.315  1.0933 -0.1397  0.0624
 4568WAT      O18977   7.333   3.661   4.540  0.1357 -0.3045 -0.7128
 4568WAT     H118978   7.398   3.674   4.484  1.2674  1.4693  0.8776
 4568WAT     H218979   7.268   3.709   4.508  1.3998  2.3241  0.3962
 4568WAT    EPW18980   7.333   3.670   4.527 -0.0724 -0.3880  0.3094
 4569WAT      O18981   5.981   2.969   6.202  0.0864  0.1367 -0.1676
 4569WAT     H118982   6.060   3.006   6.204  1.1014 -1.8852 -0.2627
 4569WAT     H218983   5.995   2.893   6.161 -1.7655 -0.5831  0.4364
 4569WAT    EPW18984   5.994   2.963   6.196  0.0104  0.1384  0.4022
 4570WAT      O18985   6.147   2.307   6.482  0.4335 -0.2304 -0.6105
 4570WAT     H118986   6.104   2.279   6.553  0.8063 -0.0133 -0.2971
 4570WAT     H218987   6.222   2.338   6.514  0.3833  0.3568 -1.0380
 4570WAT    EPW18988   6.151   2.308   6.497  0.2605 -0.3708  0.3977
 4571WAT      O18989   3.584   1.406   7.479 -0.0619  0.2373  0.0931
 4571WAT     H118990   3.552   1.338   7.523  2.8474 -0.9614  0.6174
 4571WAT     H218991   3.559   1.391   7.396 -0.4741 -0.8037  0.3931
 4571WAT    EPW18992   3.576   1.394   7.473  0.0300  0.1976  0.2974
 4572WAT      O18993   0.414   3.652   5.872  0.5783 -0.0970 -0.1452
 4572WAT     H118994   0.355   3.624   5.814 -0.3536 -1.4716  1.3694
 4572WAT     H218995   0.438   3.579   5.913  0.7436  0.8772  1.5667
 4572WAT    EPW18996   0.409   3.637   5.870 -0.4759  0.1292  0.3449
 4573WAT      O18997   5.773   5.678   2.923 -0.4986 -0.3384 -0.2998
 4573WAT     H118998   5.780   5.727   2.851 -1.0398  0.2537  0.0399
 4573WAT     H218999   5.821   5.608   2.905 -1.0932 -0.4626 -1.4638
 4573WAT    EPW19000   5.781   5.675   2.910 -0.2825  0.4209 -0.6056
 4574WAT      O19001   6.269   3.093   7.117 -0.0168 -0.5045  0.0995
 4574WAT     H119002   6.235   3.019   7.150 -0.5789 -0.2740  0.0463
 4574WAT     H219003   6.341   3.066   7.076 -0.3590 -1.0602 -0.1451
 4574WAT    EPW19004   6.275   3.078   7.116  0.2644  1.0091  0.6863
 4575WAT      O19005   2.715   7.357   3.592 -0.5730 -0.3219  0.2725
 4575WAT     H119006   2.650   7.356   3.650 -0.1026  2.8553  1.0778
 4575WAT     H219007   2.674   7.365   3.515 -1.2217  1.0690  0.7207
 4575WAT    EPW19008   2.700   7.358   3.589 -0.5731  0.7247  0.3077
 4576WAT      O19009   6.312   2.030   4.786  0.1073  0.1636 -0.0927
 4576WAT     H119010   6.269   2.044   4.712 -0.8209 -1.8529 -0.0012
 4576WAT     H219011   6.377   1.977   4.762  0.7067  0.7109  0.2933
 4576WAT    EPW19012   6.315   2.024   4.771 -0.2597  0.1642 -0.1940
 4577WAT      O19013   0.235   2.340   0.888  0.0334  0.4014 -0.4562
 4577WAT     H119014   0.308   2.358   0.844  0.3087 -1.4227 -0.8520
 4577WAT     H219015   0.179   2.402   0.863  0.7126  0.3944 -2.0886
 4577WAT    EPW19016   0.237   2.352   0.878  0.2384 -0.4207  0.3371
 4578WAT      O19017   3.107   4.014   1.478  0.3794  0.5791  0.5674
 4578WAT     H119018   3.095   3.947   1.533 -1.4915  1.2622  1.0722
 4578WAT     H219019   3.089   4.084   1.527  0.3276  1.3199 -0.4785
 4578WAT    EPW19020   3.103   4.014   1.493  0.1621  0.3524  0.1468
 4579WAT      O19021   7.423   4.125   4.764 -0.0725  0.1882 -0.0572
 4579WAT     H119022   7.337   4.116   4.755 -0.1069 -0.1822  0.6274
 4579WAT     H219023   7.444   4.183   4.702 -0.6302 -0.6391 -1.0586
 4579WAT    EPW19024   7.414   4.133   4.753 -0.1961 -0.7077 -0.5865
 4580WAT      O19025   3.524   7.075   6.304 -0.3174 -0.5105 -0.1322
 4580WAT     H119026   3.608   7.056   6.315 -0.2656 -0.9677 -1.1261
 4580WAT     H219027   3.525   7.151   6.262 -0.3955 -0.4990 -0.1147
 4580WAT    EPW19028   3.536   7.083   6.299  0.3622 -0.1305 -0.5082
 4581WAT      O19029   4.688   4.309   1.968  0.3382  0.2912 -0.0577
 4581WAT     H119030   4.742   4.241   1.979  1.1907  1.2027  1.7985
 4581WAT     H219031   4.704   4.334   1.886 -0.3133 -1.9660 -0.9417
 4581WAT    EPW19032   4.699   4.303   1.958  0.1885 -0.4752  0.0772
 4582WAT      O19033   2.556   3.730   4.408  0.1773  0.6206 -0.7966
 4582WAT     H119034   2.610   3.798   4.401 -0.2427  0.8729 -1.7448
 4582WAT     H219035   2.573   3.684   4.336  1.2183 -0.8655  0.3324
 4582WAT    EPW19036   2.567   3.733   4.397  0.4535 -0.5897  0.5155
 4583WAT      O19037   4.279   5.523   5.188  0.7834  0.4304  0.2369
 4583WAT     H119038   4.247   5.442   5.186  0.5461  0.4556  1.7286
 4583WAT     H219039   4.365   5.511   5.186  0.7420  0.1707 -0.0886
 4583WAT    EPW19040   4.287   5.509   5.187 -0.4041  0.0517  0.3091
 4584WAT      O19041   6.528   4.356   6.902  0.4349  0.2639  0.2010
 4584WAT     H119042   6.525   4.433   6.944  1.8490  1.0588 -1.0543
 4584WAT     H219043   6.481   4.303   6.952  1.0513  1.4648  2.1394
 4584WAT    EPW19044   6.521   4.360   6.915  0.1270  0.1091 -0.6918
 4585WAT      O19045   1.687   3.260   6.161  0.0433 -0.0453  0.3418
 4585WAT     H119046   1.685   3.300   6.239  0.0870  1.1603 -0.2524
 4585WAT     H219047   1.659   3.180   6.179  0.9835 -0.0949  1.7759
 4585WAT    EPW19048   1.682   3.254   6.175  0.1513  0.2970  0.3408
 4586WAT      O19049   5.203   6.707   3.899 -0.1749 -0.1771  0.0584
 4586WAT     H119050   5.129   6.679   3.862 -0.7004  1.4121 -0.1564
 4586WAT     H219051   5.264   6.687   3.841 -0.5406 -0.7282 -0.1467
 4586WAT    EPW19052   5.201   6.700   3.885  0.4119 -0.0124 -0.0401
 4587WAT      O19053   4.151   6.583   5.519  0.3156  0.2197  0.1429
 4587WAT     H119054   4.194   6.658   5.511  0.5533  0.1067  0.3466
 4587WAT     H219055   4.077   6.597   5.475 -0.0855  0.9305  0.9903
 4587WAT    EPW19056   4.146   6.596   5.512 -0.0826  0.3933 -0.2214
 4588WAT      O19057   6.153   3.465   1.753 -0.3889  0.0647  0.1770
 4588WAT     H119058   6.176   3.536   1.797 -0.3951  0.1001  0.1232
 4588WAT     H219059   6.229   3.430   1.728 -0.4168  1.3023 -1.8038
 4588WAT    EPW19060   6.167   3.470   1.756  0.7669 -0.1682  0.5462
 4589WAT      O19061   7.629   2.532   5.223 -0.3431 -0.1079 -0.4966
 4589WAT     H119062   7.619   2.619   5.228  0.9178 -0.0161  2.1675
 4589WAT     H219063   7.547   2.503   5.217 -0.9713  1.2101  0.9689
 4589WAT    EPW19064   7.615   2.541   5.223 -0.6947 -0.8657  0.1600
 4590WAT      O19065   6.909   3.068   3.056  0.3572 -1.1278  0.2426
 4590WAT     H119066   6.933   3.104   3.132 -0.2981  0.4269 -0.2582
 4590WAT     H219067   6.825   3.091   3.047  0.7799 -0.0790 -1.5893
 4590WAT    EPW19068   6.900   3.076   3.066 -0.2094  0.7473  0.0299
 4591WAT      O19069   7.051   5.840   7.292 -0.1703 -0.3228  0.1614
 4591WAT     H119070   6.994   5.883   7.243  0.8096 -1.1536 -1.8482
 4591WAT     H219071   7.128   5.867   7.262  0.6101  1.1628  3.1412
 4591WAT    EPW19072   7.054   5.850   7.280 -0.1935  0.2185 -0.0475
 4592WAT      O19073   0.739   7.596   3.974  0.1285 -0.1949  0.7202
 4592WAT     H119074   0.665   7.613   3.931  0.8612  1.1385 -0.0712
 4592WAT     H219075   0.756   7.513   3.953 -0.8534 -0.3623  0.4971
 4592WAT    EPW19076   0.730   7.586   3.965 -0.5084 -0.0345  0.0737
 4593WAT      O19077   2.081   6.682   0.851 -0.7033  0.4688 -0.3095
 4593WAT     H119078   2.144   6.700   0.793 -0.5540 -0.1661 -0.3519
 4593WAT     H219079   2.054   6.760   0.878 -1.3537  0.8215 -1.8598
 4593WAT    EPW19080   2.086   6.696   0.846  0.0646 -0.5773  0.0548
 4594WAT      O19081   4.870   6.556   2.205  0.1441 -0.1556  0.0098
 4594WAT     H119082   4.946   6.530   2.240  0.1460 -0.6227 -0.3299
 4594WAT     H219083   4.810   6.519   2.257  0.1453 -1.0223 -0.5821
 4594WAT    EPW19084   4.872   6.547   2.218  0.1505 -0.2282 -0.0866
 4595WAT      O19085   1.733   6.716   6.395  0.1309  0.0035  0.4837
 4595WAT     H119086   1.662   6.677   6.428  0.9768 -2.6723 -0.5515
 4595WAT     H219087   1.711   6.730   6.312  0.7904 -0.9370  0.1306
 4595WAT    EPW19088   1.719   6.712   6.388 -0.0244  0.4296  0.3498
 4596WAT      O19089   0.724   2.298   0.330  0.2720  0.1211  0.1727
 4596WAT     H119090   0.765   2.228   0.362 -0.5762 -0.1050  0.7618
 4596WAT     H219091   0.640   2.278   0.335  0.0718 -0.2416 -2.8845
 4596WAT    EPW19092   0.718   2.285   0.335 -0.4874  0.7123 -0.4126
 4597WAT      O19093   5.368   3.238   1.684  0.4294 -0.4366 -0.0962
 4597WAT     H119094   5.379   3.167   1.734  0.7568 -1.4259 -1.5161
 4597WAT     H219095   5.398   3.303   1.734  0.1102 -1.2756  1.2520
 4597WAT    EPW19096   5.374   3.237   1.699  0.1886 -0.5769 -0.1336
 4598WAT      O19097   6.532   0.497   2.225 -0.0744 -0.5832  0.2035
 4598WAT     H119098   6.477   0.560   2.202  0.2688 -0.8163 -1.3844
 4598WAT     H219099   6.491   0.424   2.199  0.0561 -0.9199  0.9330
 4598WAT    EPW19100   6.518   0.495   2.218  0.2028 -0.1400 -0.3143
 4599WAT      O19101   4.096   0.266   2.338  0.0018  0.0249  0.2421
 4599WAT     H119102   4.108   0.224   2.262 -1.3501 -0.4667  0.2580
 4599WAT     H219103   4.121   0.347   2.321  1.2972 -0.4557 -0.2326
 4599WAT    EPW19104   4.101   0.272   2.325 -0.1263 -0.0883 -0.3298
 4600WAT      O19105   0.917   4.879   6.431 -0.0174 -0.0376 -0.6875
 4600WAT     H119106   0.881   4.803   6.455 -1.4074  0.1624 -1.9741
 4600WAT     H219107   0.999   4.858   6.411  0.3679 -0.6948  1.4428
 4600WAT    EPW19108   0.924   4.865   6.431 -0.1029 -0.4947  0.0831
 4601WAT      O19109   3.630   1.154   5.333 -0.1136  0.4730 -0.3368
 4601WAT     H119110   3.682   1.087   5.310 -1.0260 -0.5720  0.5725
 4601WAT     H219111   3.655   1.172   5.415 -0.8471  0.2911 -0.0722
 4601WAT    EPW19112   3.642   1.146   5.341 -0.0830 -0.0510  0.2660
 4602WAT      O19113   6.993   3.870   1.450  1.0779  0.4748 -0.3522
 4602WAT     H119114   7.035   3.807   1.405 -1.8370 -1.9268 -0.0362
 4602WAT     H219115   6.992   3.839   1.531 -2.6490 -0.6363 -0.6142
 4602WAT    EPW19116   6.999   3.856   1.455 -0.1813  0.3157 -0.7188
 4603WAT      O19117   0.767   5.425   0.134  0.7503 -0.1578  0.0494
 4603WAT     H119118   0.704   5.365   0.131 -0.3010  0.7470  1.8954
 4603WAT     H219119   0.832   5.384   0.177  0.7110 -0.4927 -0.2037
 4603WAT    EPW19120   0.768   5.410   0.140  0.7887 -0.4027  0.0261
 4604WAT      O19121   3.406   0.169   3.031 -0.6855 -0.6389 -0.0518
 4604WAT     H119122   3.492   0.153   3.041 -0.6360  0.1087  0.8375
 4604WAT     H219123   3.404   0.232   2.971 -0.5799 -0.4043  0.1863
 4604WAT    EPW19124   3.419   0.176   3.024  0.3082  0.3289  0.0197
 4605WAT      O19125   4.359   1.684   4.032 -0.0815  0.7239  0.1817
 4605WAT     H119126   4.386   1.698   3.950  1.0884 -1.2943  0.1670
 4605WAT     H219127   4.397   1.609   4.054 -1.3966  0.5576  2.1487
 4605WAT    EPW19128   4.368   1.675   4.023 -0.0417 -0.5933 -0.0611
 4606WAT      O19129   5.286   4.784   5.970  0.3503 -0.3609 -0.2290
 4606WAT     H119130   5.338   4.854   5.978  0.2567 -0.3180  0.0184
 4606WAT     H219131   5.332   4.730   5.920 -0.9127  1.2086 -3.3926
 4606WAT    EPW19132   5.300   4.787   5.964 -0.1740  0.3210 -0.1063
 4607WAT      O19133   6.375   6.649   2.668 -0.7575 -0.1059  0.7698
 4607WAT     H119134   6.387   6.629   2.752 -1.6365  0.1745  0.9656
 4607WAT     H219135   6.297   6.687   2.666 -1.1186 -0.8344 -0.2971
 4607WAT    EPW19136   6.365   6.651   2.680 -0.6026  0.0846 -0.0530
 4608WAT      O19137   6.522   1.826   2.849  0.2733 -0.0607  0.0077
 4608WAT     H119138   6.528   1.854   2.766  3.3911  0.7617  0.3813
 4608WAT     H219139   6.523   1.739   2.842 -1.3680 -0.0530 -0.8299
 4608WAT    EPW19140   6.523   1.817   2.836  0.8884  0.3506  0.0862
 4609WAT      O19141   2.511   3.361   4.350  0.3115  0.2486  0.5624
 4609WAT     H119142   2.543   3.424   4.299  0.5924  0.9956  1.6250
 4609WAT     H219143   2.576   3.302   4.353 -0.1917 -0.4371 -0.9427
 4609WAT    EPW19144   2.526   3.361   4.343 -0.3987 -0.5913  0.3270
 4610WAT      O19145   6.962   5.752   3.177 -0.1603  0.6596 -0.4353
 4610WAT     H119146   6.981   5.763   3.093  0.4248 -0.1563 -0.4255
 4610WAT     H219147   6.918   5.824   3.198  0.8296  1.4891 -1.1008
 4610WAT    EPW19148   6.959   5.764   3.168  0.6212  0.1887  0.0626
 4611WAT      O19149   5.099   3.456   6.758  0.0460 -0.0727  0.0115
 4611WAT     H119150   5.093   3.483   6.675  0.6855 -1.6424 -0.5841
 4611WAT     H219151   5.185   3.455   6.773 -0.0945  1.0906  1.0345
 4611WAT    EPW19152   5.111   3.460   6.748 -0.4458 -0.8450  0.0965
 4612WAT      O19153   2.345   0.702   1.829  0.2754 -0.9990  0.0244
 4612WAT     H119154   2.375   0.666   1.755  2.2547  0.5582 -0.0089
 4612WAT     H219155   2.305   0.774   1.801 -2.1539 -2.1547  0.2420
 4612WAT    EPW19156   2.343   0.707   1.814  0.0990 -0.3238 -0.0755
 4613WAT      O19157   1.535   0.960   3.846  0.2292 -0.0835  0.0486
 4613WAT     H119158   1.522   1.037   3.808  0.0908  0.8114  1.7777
 4613WAT     H219159   1.603   0.975   3.899  0.6345 -1.3453 -0.0926
 4613WAT    EPW19160   1.543   0.973   3.848 -0.0097  0.6263  0.5570
 4614WAT      O19161   0.005   1.132   3.657  0.6629 -0.4260 -0.0775
 4614WAT     H119162   0.067   1.192   3.669  1.5518 -1.3743  0.2068
 4614WAT     H219163   0.011   1.115   3.571  0.8136 -0.5331 -0.0463
 4614WAT    EPW19164   0.015   1.138   3.646 -0.1230 -0.6308  0.3590
 4615WAT      O19165   0.062   5.511   7.606 -0.4500  0.4156  0.2168
 4615WAT     H119166   0.039   5.475   7.530 -0.0229  1.8785 -0.6520
 4615WAT     H219167   0.055   5.445   7.663 -0.4183 -0.8186 -1.1455
 4615WAT    EPW19168   0.058   5.496   7.603 -0.0205 -0.2007  0.1432
 4616WAT      O19169   1.576   5.161   5.287  0.0437 -0.2365 -0.3684
 4616WAT     H119170   1.652   5.176   5.245  0.8577 -0.7578  0.8523
 4616WAT     H219171   1.570   5.229   5.342 -1.0012  0.4288 -1.2629
 4616WAT    EPW19172   1.587   5.173   5.289 -0.0659 -0.2638  0.5292
 4617WAT      O19173   0.931   4.725   4.142 -0.8277  0.0719 -0.2205
 4617WAT     H119174   1.011   4.753   4.124 -0.5869 -0.2769  0.2800
 4617WAT     H219175   0.923   4.741   4.228 -0.7703 -1.1529  0.0301
 4617WAT    EPW19176   0.942   4.732   4.152  0.3964  0.1802 -0.1240
 4618WAT      O19177   5.355   4.661   3.931  0.3140 -0.7138 -0.6002
 4618WAT     H119178   5.289   4.714   3.910  0.1676  0.1903  1.8066
 4618WAT     H219179   5.401   4.655   3.858 -0.7719  1.1172 -1.4994
 4618WAT    EPW19180   5.352   4.668   3.917  0.4016  0.8366 -0.2558
 4619WAT      O19181   5.878   7.486   5.946  0.2430  0.0082  0.3641
 4619WAT     H119182   5.847   7.441   5.878 -1.1177 -0.1524  1.0480
 4619WAT     H219183   5.932   7.544   5.910  0.8894 -1.2002 -0.6814
 4619WAT    EPW19184   5.881   7.488   5.931 -0.2017 -0.0016  0.3492
 4620WAT      O19185   3.063   5.576   4.955  0.0831 -0.4414 -0.8471
 4620WAT     H119186   3.141   5.607   4.930 -0.1293 -0.3307 -1.3860
 4620WAT     H219187   3.059   5.598   5.040  0.9257 -1.0575 -0.6294
 4620WAT    EPW19188   3.074   5.584   4.964  0.0078  0.0907  0.0695
 4621WAT      O19189   5.773   2.238   5.852 -0.2455 -0.0514  0.3605
 4621WAT     H119190   5.852   2.262   5.823  0.2974 -0.5152  1.4034
 4621WAT     H219191   5.791   2.185   5.919 -1.3718 -3.0770 -1.5285
 4621WAT    EPW19192   5.788   2.233   5.858  0.2474  0.5690  0.0318
 4622WAT      O19193   7.499   7.213   4.514  0.8065  0.0734 -0.1602
 4622WAT     H119194   7.550   7.233   4.583  0.9315  0.2210 -0.2948
 4622WAT     H219195   7.493   7.126   4.517  3.3502 -0.2687 -1.7395
 4622WAT    EPW19196   7.505   7.203   4.525 -0.2140  0.3450  0.1550
 4623WAT      O19197   2.850   4.124   5.443  0.1805  0.4649  0.5125
 4623WAT     H119198   2.871   4.143   5.525  1.2201 -0.8066  0.5885
 4623WAT     H219199   2.926   4.098   5.408 -0.7376 -1.7889  0.0039
 4623WAT    EPW19200   2.864   4.123   5.450  0.1082 -0.0409  0.1677
 4624WAT      O19201   5.141   3.408   3.132  0.0636  0.1621 -0.4705
 4624WAT     H119202   5.136   3.385   3.048  0.5279 -1.1167 -0.1634
 4624WAT     H219203   5.175   3.489   3.129  0.0858  0.1275 -1.5044
 4624WAT    EPW19204   5.145   3.417   3.119  0.0916  0.2186  0.0027
 4625WAT      O19205   0.585   1.762   4.521  0.2246  0.3808 -0.0591
 4625WAT     H119206   0.504   1.740   4.544  1.0760 -0.1538  2.7698
 4625WAT     H219207   0.595   1.842   4.554  1.1561  0.0280  0.5597
 4625WAT    EPW19208   0.574   1.770   4.529 -0.2190  0.6229 -1.1208
 4626WAT      O19209   2.134   2.730   4.822  0.4511 -0.5534  0.2421
 4626WAT     H119210   2.169   2.711   4.899 -0.2203  0.4731  0.8344
 4626WAT     H219211   2.094   2.656   4.799  1.0247 -1.0080  0.6592
 4626WAT    EPW19212   2.133   2.716   4.830 -0.3731  0.1162  0.0937
 4627WAT      O19213   0.213   6.132   3.457  0.2491  0.1177 -0.9768
 4627WAT     H119214   0.185   6.211   3.483  1.8010  0.6371 -0.7942
 4627WAT     H219215   0.182   6.078   3.518  0.0393  0.7265 -0.5378
 4627WAT    EPW19216   0.204   6.136   3.470 -0.1827 -0.1076 -0.2923
 4628WAT      O19217   1.562   0.385   5.837 -0.2061  0.0745  0.3076
 4628WAT     H119218   1.576   0.314   5.787 -2.7372 -0.2555 -0.0285
 4628WAT     H219219   1.519   0.354   5.906  0.0565  1.0807  0.9453
 4628WAT    EPW19220   1.558   0.370   5.840  0.3421 -0.5086 -0.2417
 4629WAT      O19221   1.304   5.737   3.843  0.4502 -0.5276  0.4735
 4629WAT     H119222   1.232   5.776   3.812 -1.5723 -2.6513  2.1556
 4629WAT     H219223   1.310   5.767   3.925 -1.0642 -3.3155  1.7609
 4629WAT    EPW19224   1.294   5.747   3.850  0.0723  0.0895  0.1925
 4630WAT      O19225   1.551   2.976   0.483 -0.2856 -0.3887 -0.0704
 4630WAT     H119226   1.630   2.943   0.470 -0.5678 -1.3527  0.6136
 4630WAT     H219227   1.550   2.996   0.568 -0.0779  1.5433 -0.4726
 4630WAT    EPW19228   1.563   2.974   0.494 -0.4243 -0.2447 -1.1327
 4631WAT      O19229   7.173   2.020   6.406  0.3327 -0.0042 -0.7448
 4631WAT     H119230   7.181   2.093   6.454 -1.1112 -0.4387  0.2242
 4631WAT     H219231   7.223   1.962   6.449 -1.7140 -0.6620  0.9010
 4631WAT    EPW19232   7.182   2.022   6.419  0.2841  0.6560  0.2538
 4632WAT      O19233   4.756   6.267   1.731 -0.5419  0.2090  0.0592
 4632WAT     H119234   4.793   6.286   1.807 -2.2158 -0.3562  1.0534
 4632WAT     H219235   4.823   6.271   1.674  1.1025 -1.1475  1.8070
 4632WAT    EPW19236   4.771   6.271   1.734 -0.4021 -0.4207 -0.6024
 4633WAT      O19237   2.913   0.312   4.060 -0.6228  0.2453  0.0198
 4633WAT     H119238   2.899   0.328   3.975  0.5719 -0.5623 -0.3585
 4633WAT     H219239   2.837   0.330   4.097 -1.4603 -0.2964 -1.3587
 4633WAT    EPW19240   2.900   0.317   4.053 -0.0211  0.1934  0.4342
 4634WAT      O19241   6.785   1.823   6.911 -0.3997  0.5118 -0.5456
 4634WAT     H119242   6.709   1.821   6.954 -0.3273 -0.0759 -0.4294
 4634WAT     H219243   6.778   1.759   6.853  0.0212  0.4302 -0.5112
 4634WAT    EPW19244   6.773   1.813   6.909  0.1791 -0.0375  0.5061
 4635WAT      O19245   5.221   3.280   4.681  0.1947 -0.3469 -0.2968
 4635WAT     H119246   5.167   3.265   4.614  1.2148 -0.9228 -1.0210
 4635WAT     H219247   5.248   3.200   4.704  1.8049 -0.0276 -0.8939
 4635WAT    EPW19248   5.217   3.266   4.674 -1.0644  0.0645 -0.3138
 4636WAT      O19249   0.848   7.404   2.518 -0.5003  0.5053  0.4897
 4636WAT     H119250   0.821   7.479   2.483  1.1770  0.4398 -1.1036
 4636WAT     H219251   0.787   7.347   2.494 -0.8252  1.0081  0.0903
 4636WAT    EPW19252   0.835   7.407   2.509  0.1437 -0.1814 -0.3330
 4637WAT      O19253   6.909   6.645   3.197 -0.6904 -0.2615 -0.8170
 4637WAT     H119254   6.978   6.697   3.185 -0.9927  0.0566 -1.2079
 4637WAT     H219255   6.944   6.565   3.197 -0.3204 -0.1032 -1.0218
 4637WAT    EPW19256   6.924   6.641   3.195 -0.0857 -0.1568  0.6906
 4638WAT      O19257   6.850   4.915   1.765 -0.3500 -0.0408 -0.2408
 4638WAT     H119258   6.887   4.869   1.829 -1.1347 -0.8359 -0.3268
 4638WAT     H219259   6.786   4.958   1.805  0.3781  0.9947 -0.1650
 4638WAT    EPW19260   6.846   4.914   1.780 -0.4827 -0.3439 -0.1310
 4639WAT      O19261   1.377   1.478   2.123  0.6261 -0.1328 -0.0239
 4639WAT     H119262   1.449   1.522   2.105  1.0484 -0.2061  1.3706
 4639WAT     H219263   1.378   1.470   2.210 -0.2874 -1.4314 -0.0888
 4639WAT    EPW19264   1.388   1.483   2.134  0.0515  0.4222  0.3058
 4640WAT      O19265   6.444   5.988   1.894 -0.5613 -0.6957  0.3662
 4640WAT     H119266   6.491   6.053   1.859 -2.9000  0.5619 -0.6789
 4640WAT     H219267   6.504   5.926   1.910  1.3601  0.5524 -1.3963
 4640WAT    EPW19268   6.460   5.988   1.891  0.1528  0.1388  0.0075
 4641WAT      O19269   6.844   2.587   6.273 -0.1565  0.2533  0.3824
 4641WAT     H119270   6.784   2.647   6.253  0.9685  1.3631  0.1761
 4641WAT     H219271   6.917   2.634   6.282  0.7700 -1.1020  0.1937
 4641WAT    EPW19272   6.846   2.603   6.272  0.1964 -0.2213  0.1652
 4642WAT      O19273   7.374   2.696   4.963  0.5165 -0.4594 -0.1789
 4642WAT     H119274   7.297   2.656   4.971 -0.7001  1.9812  1.4048
 4642WAT     H219275   7.364   2.745   4.891  0.9591 -0.8791 -0.5293
 4642WAT    EPW19276   7.361   2.698   4.953  0.2425  0.3776  0.0474
 4643WAT      O19277   7.016   1.000   3.839 -0.0245  0.7630  0.4005
 4643WAT     H119278   6.992   1.018   3.757  0.4952  0.3455  0.1489
 4643WAT     H219279   6.941   0.982   3.879 -0.2587  0.7245 -0.0495
 4643WAT    EPW19280   7.002   1.000   3.832 -0.5601  0.1787 -0.1233
 4644WAT      O19281   2.037   0.864   0.466 -0.4967  0.7850 -0.3628
 4644WAT     H119282   2.050   0.868   0.552  0.2231  1.8107 -0.4935
 4644WAT     H219283   2.083   0.794   0.441  0.2821  1.1715 -0.0518
 4644WAT    EPW19284   2.046   0.855   0.475  0.0843 -0.3398  1.0531
 4645WAT      O19285   6.991   1.565   4.242  0.6534 -0.4181 -0.2784
 4645WAT     H119286   6.963   1.493   4.283 -0.0120 -0.2233 -0.3705
 4645WAT     H219287   6.941   1.569   4.171 -0.6685  1.1575  0.6670
 4645WAT    EPW19288   6.979   1.555   4.238  0.0674 -0.1508 -0.4799
 4646WAT      O19289   7.008   7.148   3.360 -0.1207 -0.6400 -0.4070
 4646WAT     H119290   6.949   7.156   3.297 -0.4455 -2.3284 -0.3644
 4646WAT     H219291   7.084   7.165   3.319 -0.3278 -1.6667 -1.2779
 4646WAT    EPW19292   7.011   7.152   3.345  0.1588  0.3375 -0.4795
 4647WAT      O19293   2.847   2.089   2.165  0.1817  0.1146  0.5774
 4647WAT     H119294   2.931   2.104   2.149 -0.0515  0.5887 -0.2164
 4647WAT     H219295   2.807   2.162   2.138 -0.6500 -0.7206 -0.5386
 4647WAT    EPW19296   2.854   2.102   2.159  0.2985  0.3312 -0.6914
 4648WAT      O19297   1.613   2.681   1.505 -0.0968 -0.6152 -0.0571
 4648WAT     H119298   1.570   2.639   1.569  0.4882  0.8223  1.3583
 4648WAT     H219299   1.690   2.641   1.502 -0.2193 -0.8525 -0.0273
 4648WAT    EPW19300   1.618   2.669   1.514  0.0039 -0.0870  0.2346
 4649WAT      O19301   0.096   1.359   5.562  0.2777  0.7985  0.4727
 4649WAT     H119302   0.024   1.380   5.606 -0.2878  1.2413 -0.6011
 4649WAT     H219303   0.104   1.273   5.575 -1.2665  0.4612 -0.5032
 4649WAT    EPW19304   0.086   1.350   5.570  0.1700  0.4277  0.4320
 4650WAT      O19305   7.325   6.965   5.900  0.7496  0.4418 -0.0201
 4650WAT     H119306   7.318   7.019   5.832  1.0566  1.1817  0.5220
 4650WAT     H219307   7.328   7.018   5.969  0.9015 -0.2742  0.5435
 4650WAT    EPW19308   7.325   6.980   5.900 -0.2200  0.1982 -0.0266
 4651WAT      O19309   3.105   2.182   2.092 -0.0585  0.5639  0.2640
 4651WAT     H119310   3.119   2.250   2.041  0.5153  1.4382  1.5295
 4651WAT     H219311   3.170   2.187   2.151 -0.9951 -0.0708  1.3852
 4651WAT    EPW19312   3.117   2.192   2.093 -0.2694 -0.3413 -0.7952
 4652WAT      O19313   5.543   0.348   0.290  0.5640  0.0413 -0.9064
 4652WAT     H119314   5.574   0.268   0.278  1.0388  0.1205 -0.2577
 4652WAT     H219315   5.609   0.400   0.264  0.5089  0.2172 -0.6988
 4652WAT    EPW19316   5.557   0.344   0.284 -0.3946  0.1625  0.0624
 4653WAT      O19317   5.257   3.640   3.080  0.3634 -0.4475  0.1952
 4653WAT     H119318   5.345   3.638   3.078  0.5430  1.4630  2.5290
 4653WAT     H219319   5.238   3.722   3.056 -0.7377 -0.5534  0.6871
 4653WAT    EPW19320   5.267   3.652   3.076  0.2036  0.1434 -0.1256
 4654WAT      O19321   1.992   6.507   7.538  0.3028 -0.2163  0.1599
 4654WAT     H119322   2.055   6.527   7.481  2.0710 -1.0758  1.7061
 4654WAT     H219323   1.998   6.420   7.545 -0.1021 -0.1635  1.3642
 4654WAT    EPW19324   2.002   6.497   7.530 -0.3582  0.1431 -0.2569
 4655WAT      O19325   4.508   3.037   1.036  0.3970 -0.0596  0.7088
 4655WAT     H119326   4.552   2.963   1.052 -1.0087 -0.8150  1.3520
 4655WAT     H219327   4.485   3.064   1.116  0.2706  0.6688  0.4288
 4655WAT    EPW19328   4.511   3.030   1.050  0.4999  0.4933 -0.2593
 4656WAT      O19329   0.783   4.217   4.097  0.4384  0.7514 -0.2848
 4656WAT     H119330   0.850   4.163   4.107  0.7728  1.1601 -0.3079
 4656WAT     H219331   0.770   4.248   4.178 -0.3502 -0.0543 -0.0808
 4656WAT    EPW19332   0.791   4.214   4.110 -0.3333 -0.4748  0.4926
 4657WAT      O19333   5.910   6.712   4.778  0.8275 -0.5057 -0.2989
 4657WAT     H119334   5.962   6.722   4.708  0.3935  0.9868 -0.4379
 4657WAT     H219335   5.954   6.753   4.842  1.1320 -1.7038  0.2852
 4657WAT    EPW19336   5.924   6.720   4.777  0.5659 -0.2752  0.1979
 4658WAT      O19337   5.837   5.324   5.258  0.1439 -0.4211  0.3012
 4658WAT     H119338   5.894   5.330   5.324 -0.9567 -0.8044  1.3050
 4658WAT     H219339   5.759   5.331   5.297 -0.5126  2.0853 -1.2485
 4658WAT    EPW19340   5.834   5.326   5.274  0.3290 -0.5163 -0.0156
 4659WAT      O19341   0.591   3.686   5.560 -0.2619  0.1298 -0.1308
 4659WAT     H119342   0.592   3.649   5.481  0.2453  1.0657 -0.5771
 4659WAT     H219343   0.513   3.664   5.592 -0.9885  0.7323 -1.3894
 4659WAT    EPW19344   0.579   3.677   5.553  0.3558  0.2229 -0.2329
 4660WAT      O19345   5.997   4.696   2.387 -0.5393  0.4418 -0.7101
 4660WAT     H119346   6.000   4.666   2.469  3.7958  0.0850 -0.8054
 4660WAT     H219347   6.006   4.782   2.397  1.7180  0.2700 -0.7153
 4660WAT    EPW19348   5.999   4.704   2.401  0.1748 -0.0870  0.0643
 4661WAT      O19349   5.175   7.243   0.345  0.4125 -0.1007  0.7516
 4661WAT     H119350   5.172   7.294   0.274 -1.0963  1.5566  1.8995
 4661WAT     H219351   5.126   7.175   0.324 -0.6258  0.7239  0.4019
 4661WAT    EPW19352   5.167   7.241   0.331 -0.2846  0.4818 -0.1290
 4662WAT      O19353   2.320   1.577   2.033  0.2547  0.2488  0.1356
 4662WAT     H119354   2.267   1.638   2.067  0.6855  0.9592 -0.4207
 4662WAT     H219355   2.293   1.503   2.070 -1.9532  0.3940 -1.0453
 4662WAT    EPW19356   2.308   1.575   2.044  0.6739  0.1798  0.3269
 4663WAT      O19357   4.910   3.322   1.737 -0.0953  0.0225 -0.2804
 4663WAT     H119358   4.932   3.370   1.806  1.1455  0.1634 -0.7453
 4663WAT     H219359   4.879   3.249   1.772  2.2179 -0.6709  0.4652
 4663WAT    EPW19360   4.908   3.319   1.752 -0.3270 -0.7876  0.4331
 4664WAT      O19361   7.532   5.455   2.776  0.1637 -0.3157  0.1547
 4664WAT     H119362   7.552   5.538   2.758 -1.1869  0.1477  0.6849
 4664WAT     H219363   7.461   5.461   2.826  0.6017 -1.7567  1.0176
 4664WAT    EPW19364   7.525   5.468   2.781 -0.3110  0.6350 -0.0550
 4665WAT      O19365   0.953   0.238   1.436 -0.1119 -0.6267  0.0329
 4665WAT     H119366   0.935   0.194   1.363 -0.4217  0.8283 -0.7982
 4665WAT     H219367   0.907   0.312   1.428  0.4341 -0.1080  1.3603
 4665WAT    EPW19368   0.943   0.242   1.424 -0.8124 -0.0868 -0.1317
 4666WAT      O19369   4.625   2.206   4.680 -0.1256  0.5352  0.1254
 4666WAT     H119370   4.586   2.279   4.652 -1.4757 -0.3791 -0.5035
 4666WAT     H219371   4.612   2.150   4.615 -0.1260 -0.5954  1.0731
 4666WAT    EPW19372   4.617   2.209   4.667  0.0334 -0.6405  0.6667
 4667WAT      O19373   6.911   6.275   2.053 -0.6635  0.1229 -0.7240
 4667WAT     H119374   6.909   6.221   1.985 -0.8834 -0.3768 -0.3243
 4667WAT     H219375   6.924   6.353   2.016 -0.0250 -0.2295 -1.2866
 4667WAT    EPW19376   6.913   6.279   2.037 -0.6172 -0.1982 -0.3624
 4668WAT      O19377   6.826   6.780   5.058  0.0796 -0.0052  0.1076
 4668WAT     H119378   6.788   6.820   5.125 -1.7464  1.0433 -1.4656
 4668WAT     H219379   6.802   6.696   5.068 -1.3320  0.3685  0.0480
 4668WAT    EPW19380   6.817   6.773   5.069 -0.2577 -0.5039  0.5830
 4669WAT      O19381   2.589   2.061   2.620  0.2390  0.3750  0.0298
 4669WAT     H119382   2.648   1.998   2.635  1.1360  0.8446 -1.3669
 4669WAT     H219383   2.515   2.016   2.610  0.5684 -0.3272  0.5918
 4669WAT    EPW19384   2.587   2.045   2.621 -0.2008  0.8251 -0.1841
 4670WAT      O19385   1.561   1.896   5.658  0.3080  0.7122 -0.2524
 4670WAT     H119386   1.528   1.943   5.724 -1.1849 -1.3855  0.5962
 4670WAT     H219387   1.636   1.864   5.691  1.0838  2.0231 -0.6669
 4670WAT    EPW19388   1.567   1.898   5.673  0.4740  0.0675 -0.0601
 4671WAT      O19389   4.001   1.024   6.215 -0.7589  0.1772 -0.0118
 4671WAT     H119390   3.999   1.083   6.150 -3.5484 -0.5439 -0.7211
 4671WAT     H219391   3.983   1.072   6.286 -2.1246  0.3734 -0.4570
 4671WAT    EPW19392   3.998   1.040   6.216 -0.7451 -0.7707  0.2944
 4672WAT      O19393   6.827   6.104   2.956 -0.4144 -0.0121  0.3949
 4672WAT     H119394   6.806   6.180   2.994 -0.5627  0.1395  0.0108
 4672WAT     H219395   6.850   6.053   3.023  0.7708  0.7128  0.5724
 4672WAT    EPW19396   6.828   6.108   2.972 -0.4739  0.1231 -0.8064
 4673WAT      O19397   2.636   2.833   1.887  0.0590 -0.0759 -0.4076
 4673WAT     H119398   2.578   2.844   1.951 -0.5457  2.1474 -1.2366
 4673WAT     H219399   2.587   2.827   1.815  0.7864  0.4964 -0.9703
 4673WAT    EPW19400   2.620   2.834   1.886  0.3327  0.0014  0.4094
 4674WAT      O19401   3.937   2.176   1.890 -0.0280 -0.0166 -0.4224
 4674WAT     H119402   3.984   2.122   1.841 -0.8290 -1.5833  0.4358
 4674WAT     H219403   3.991   2.242   1.905  0.8946 -0.4188 -1.7758
 4674WAT    EPW19404   3.952   2.177   1.885  0.4535  0.1631  0.2215
 4675WAT      O19405   7.026   6.593   2.566 -0.0260  0.2181 -0.1735
 4675WAT     H119406   7.012   6.679   2.562  0.8595  0.4614  1.3607
 4675WAT     H219407   7.018   6.574   2.650 -0.8677 -1.3531 -0.5646
 4675WAT    EPW19408   7.023   6.603   2.578 -0.4374  0.6168 -0.6262
 4676WAT      O19409   0.394   0.484   2.415  0.9670 -0.7457  0.2828
 4676WAT     H119410   0.364   0.421   2.466  2.6464 -1.9509 -0.1250
 4676WAT     H219411   0.464   0.448   2.377  0.3383  0.3757 -2.1725
 4676WAT    EPW19412   0.400   0.469   2.417 -0.3001  0.2971 -0.0073
 4677WAT      O19413   0.970   4.572   6.935  0.5161  0.0182  0.0267
 4677WAT     H119414   1.042   4.572   6.984 -0.4536  0.5628  1.5270
 4677WAT     H219415   0.906   4.587   6.992 -0.5358  2.4117 -1.6232
 4677WAT    EPW19416   0.971   4.574   6.951 -0.6234 -0.0974 -0.1787
 4678WAT      O19417   6.711   4.898   6.642 -0.5327 -0.3266  1.1905
 4678WAT     H119418   6.732   4.815   6.660 -2.3270 -1.6242 -1.7658
 4678WAT     H219419   6.629   4.905   6.671 -1.3143 -0.5348 -0.7838
 4678WAT    EPW19420   6.702   4.887   6.649  0.0097 -0.6771  0.3431
 4679WAT      O19421   1.163   2.910   0.121 -0.1552 -0.9486 -0.4532
 4679WAT     H119422   1.092   2.950   0.088 -1.6464 -1.4146  1.9158
 4679WAT     H219423   1.133   2.832   0.145  0.6913 -0.5878  2.0737
 4679WAT    EPW19424   1.148   2.905   0.120  0.6645  0.2968  0.1825
 4680WAT      O19425   0.785   5.428   3.928  0.1694  0.1853 -0.1367
 4680WAT     H119426   0.706   5.451   3.958  0.4828  0.0745  0.8022
 4680WAT     H219427   0.828   5.504   3.924  0.4190  0.0858  0.5875
 4680WAT    EPW19428   0.779   5.443   3.932 -0.2049  0.4753  0.4713
 4681WAT      O19429   3.657   1.784   4.705  0.5231 -0.0575  0.4476
 4681WAT     H119430   3.687   1.866   4.709  0.2649  0.1125 -0.7176
 4681WAT     H219431   3.583   1.787   4.751  0.7901  0.2297  0.8659
 4681WAT    EPW19432   3.651   1.797   4.713  0.5054 -0.3758  0.2435
 4682WAT      O19433   1.701   0.634   0.101 -0.5885 -0.5747 -0.1090
 4682WAT     H119434   1.765   0.584   0.131 -0.2291 -0.3032 -0.4176
 4682WAT     H219435   1.631   0.608   0.147 -0.3732 -1.2334 -0.1524
 4682WAT    EPW19436   1.700   0.623   0.113  0.0348  0.4669 -0.5059
 4683WAT      O19437   2.412   1.365   3.831  0.1563 -0.5617  0.0923
 4683WAT     H119438   2.457   1.293   3.848 -0.5586 -0.8536  0.7889
 4683WAT     H219439   2.428   1.417   3.899  0.2039 -0.2824 -0.1266
 4683WAT    EPW19440   2.421   1.362   3.843  0.0593 -0.1000 -0.2525
 4684WAT      O19441   3.952   2.892   1.122 -0.5023  0.0323  0.4877
 4684WAT     H119442   3.910   2.816   1.115  0.8092 -0.7469  0.8915
 4684WAT     H219443   4.033   2.869   1.144  0.1564  1.5008 -0.2722
 4684WAT    EPW19444   3.958   2.877   1.124 -0.1221 -0.2604  0.5698
 4685WAT      O19445   6.166   2.995   1.957 -0.3700 -0.1043 -0.5648
 4685WAT     H119446   6.170   3.047   2.027 -0.2422  1.2843 -1.5632
 4685WAT     H219447   6.095   2.948   1.970 -0.7245  0.6121  0.1865
 4685WAT    EPW19448   6.156   2.996   1.969 -0.2914 -0.2410  0.6355
 4686WAT      O19449   1.893   0.828   1.714 -0.2815  0.1012  0.3001
 4686WAT     H119450   1.873   0.804   1.632 -0.8244  0.1072  0.4257
 4686WAT     H219451   1.847   0.902   1.725  1.2666  1.1684 -0.0411
 4686WAT    EPW19452   1.883   0.836   1.703 -0.3012 -0.3599  0.4064
 4687WAT      O19453   4.538   5.902   5.939 -0.3251  1.0615 -0.2950
 4687WAT     H119454   4.612   5.893   5.984  0.8631 -0.0473 -2.3054
 4687WAT     H219455   4.547   5.979   5.900 -0.8508  1.5210  0.4731
 4687WAT    EPW19456   4.551   5.912   5.940  0.0392  0.4771  0.3196
 4688WAT      O19457   1.042   2.496   7.187  0.2132  0.1906 -0.4674
 4688WAT     H119458   1.044   2.429   7.132 -0.2195 -0.6047  0.4442
 4688WAT     H219459   1.085   2.467   7.257  2.7081  1.9423 -1.1310
 4688WAT    EPW19460   1.048   2.482   7.189  0.2105  0.9997  0.5032
 4689WAT      O19461   6.243   1.520   3.991 -0.1528 -0.3192 -0.2109
 4689WAT     H119462   6.222   1.595   3.950 -1.2651  0.2991  1.3683
 4689WAT     H219463   6.288   1.476   3.931 -1.8047  0.4624 -2.1399
 4689WAT    EPW19464   6.246   1.525   3.976  0.0117  0.1040  0.1942
 4690WAT      O19465   5.653   2.831   2.136  0.4576 -0.5890  0.1105
 4690WAT     H119466   5.684   2.769   2.084  0.3177 -0.9420  0.4465
 4690WAT     H219467   5.662   2.798   2.216 -0.1961 -0.4380  0.2531
 4690WAT    EPW19468   5.659   2.817   2.140  0.0322  1.0308  0.1967
 4691WAT      O19469   5.370   2.782   6.449 -0.5325  0.1845  0.1052
 4691WAT     H119470   5.364   2.763   6.534 -0.2655 -0.5189 -0.0249
 4691WAT     H219471   5.289   2.804   6.427 -0.7795 -0.4418  0.3606
 4691WAT    EPW19472   5.357   2.782   6.458 -0.3146  0.1368  0.0932
 4692WAT      O19473   7.121   5.570   0.734  0.2146 -0.1713 -0.0941
 4692WAT     H119474   7.066   5.635   0.717 -0.3320  0.1314  2.4100
 4692WAT     H219475   7.198   5.600   0.707 -0.2670  0.9325 -0.2687
 4692WAT    EPW19476   7.124   5.584   0.727 -0.3302 -0.3589 -0.0482
 4693WAT      O19477   3.502   4.437   2.631 -0.6613 -0.3102  0.1453
 4693WAT     H119478   3.501   4.376   2.693 -0.6770  0.2555  0.7090
 4693WAT     H219479   3.466   4.397   2.562  2.3106 -2.0454 -0.5562
 4693WAT    EPW19480   3.497   4.422   2.630  0.0385  0.6036  0.2761
 4694WAT      O19481   1.447   2.740   4.408 -0.3076  0.4709 -0.2973
 4694WAT     H119482   1.493   2.801   4.367 -0.3945 -0.1765 -1.4028
 4694WAT     H219483   1.436   2.773   4.488  0.0450  1.6840 -0.7213
 4694WAT    EPW19484   1.452   2.754   4.414 -0.1626  0.0811 -0.4242
 4695WAT      O19485   5.446   1.004   6.922 -0.2756 -0.0192  0.7346
 4695WAT     H119486   5.402   1.039   6.988  1.1061 -0.0481  1.7115
 4695WAT     H219487   5.430   0.918   6.929 -0.5426  0.0248  0.6940
 4695WAT    EPW19488   5.437   0.996   6.933  0.7736  0.2551  0.0710
 4696WAT      O19489   3.265   7.198   4.869  0.3215  0.4603  0.1311
 4696WAT     H119490   3.313   7.177   4.799  1.6219  1.2072  0.7558
 4696WAT     H219491   3.195   7.238   4.836 -0.4207 -1.5450 -0.8677
 4696WAT    EPW19492   3.262   7.201   4.854  0.4892  0.4752 -0.2788
 4697WAT      O19493   6.668   1.278   6.190  0.3223  0.0012 -0.1875
 4697WAT     H119494   6.590   1.260   6.225  0.8303 -0.3506  0.8035
 4697WAT     H219495   6.694   1.349   6.234  0.6087  0.0603 -0.4475
 4697WAT    EPW19496   6.660   1.286   6.202 -0.0871 -0.7815  0.2754
 4698WAT      O19497   5.185   4.505   2.549  0.0611  0.1805  0.1011
 4698WAT     H119498   5.198   4.443   2.608  0.9631 -0.4121 -0.6984
 4698WAT     H219499   5.104   4.533   2.567 -0.3167 -1.1283  0.5676
 4698WAT    EPW19500   5.175   4.500   2.560 -0.8991 -0.2571 -0.3451
 4699WAT      O19501   5.087   3.728   3.586  0.0905 -0.1251  0.1636
 4699WAT     H119502   5.146   3.747   3.525  0.4562  1.7618  1.0603
 4699WAT     H219503   5.042   3.802   3.595 -1.5401 -1.1076  0.4999
 4699WAT    EPW19504   5.089   3.741   3.578 -0.6123  0.1027  0.2315
 4700WAT      O19505   6.908   5.839   2.170 -0.1614  0.3052  0.4702
 4700WAT     H119506   6.949   5.772   2.133  0.2613  0.4581  0.6616
 4700WAT     H219507   6.972   5.885   2.207 -0.5861  0.1237  1.4521
 4700WAT    EPW19508   6.924   5.836   2.170 -0.4898 -0.4702  0.1834
 4701WAT      O19509   7.479   4.530   0.341 -0.3823  0.1946 -1.1074
 4701WAT     H119510   7.514   4.588   0.396 -1.8521 -1.6109  1.9590
 4701WAT     H219511   7.431   4.580   0.288  1.3130  2.0451 -1.0331
 4701WAT    EPW19512   7.477   4.546   0.341  0.2901 -0.6609 -0.3216
 4702WAT      O19513   5.848   0.299   3.303  0.4939 -0.0302 -0.4198
 4702WAT     H119514   5.866   0.250   3.233 -0.7645  1.4320 -1.8558
 4702WAT     H219515   5.926   0.311   3.340  1.0755 -1.5330 -1.0586
 4702WAT    EPW19516   5.862   0.294   3.298 -0.6180 -0.3635 -0.7357
 4703WAT      O19517   2.728   5.724   1.324  0.2238  0.3250  0.3316
 4703WAT     H119518   2.761   5.655   1.283 -0.3739  0.7802 -1.0076
 4703WAT     H219519   2.797   5.761   1.362  0.9373  0.1744 -0.7591
 4703WAT    EPW19520   2.743   5.719   1.323  0.1165  0.2871  0.2953
 4704WAT      O19521   6.068   0.675   3.228  0.3058 -0.3171 -0.0385
 4704WAT     H119522   6.153   0.684   3.210  0.4729 -1.6533 -0.0094
 4704WAT     H219523   6.068   0.643   3.309 -0.2381 -0.0471  0.0713
 4704WAT    EPW19524   6.081   0.672   3.237 -0.4413 -0.1272  0.2323
 4705WAT      O19525   2.538   5.233   1.557  0.0197  0.1665  0.4097
 4705WAT     H119526   2.531   5.159   1.511  2.0043  0.4396 -0.4306
 4705WAT     H219527   2.456   5.264   1.559 -0.2770 -0.2453 -2.2875
 4705WAT    EPW19528   2.525   5.227   1.551 -0.0910  0.5229 -0.3063
 4706WAT      O19529   7.252   3.481   5.903 -0.1108 -0.1131 -0.2112
 4706WAT     H119530   7.260   3.399   5.873  2.0631  0.5308 -1.6092
 4706WAT     H219531   7.219   3.525   5.835 -1.6639  0.1741  0.6656
 4706WAT    EPW19532   7.248   3.475   5.888 -0.5301  0.0115 -0.8827
 4707WAT      O19533   6.293   4.800   5.084 -0.1961  0.6386 -0.6389
 4707WAT     H119534   6.228   4.806   5.142 -0.5001 -1.8810 -0.5988
 4707WAT     H219535   6.364   4.820   5.130 -0.0159 -4.0538  1.6878
 4707WAT    EPW19536   6.294   4.803   5.099  0.2574  0.0731  0.1220
 4708WAT      O19537   7.146   1.218   4.266  0.4122  0.0339  0.2914
 4708WAT     H119538   7.068   1.179   4.258  1.0746 -1.6106  1.2927
 4708WAT     H219539   7.126   1.296   4.300 -0.8100 -0.2426  0.2826
 4708WAT    EPW19540   7.131   1.224   4.270  0.2606 -0.0268  0.0950
 4709WAT      O19541   0.442   5.258   6.094 -0.9338 -0.0501  0.0213
 4709WAT     H119542   0.404   5.297   6.025 -0.4770  0.7834  0.2238
 4709WAT     H219543   0.527   5.263   6.075 -0.8862 -1.3706 -0.1570
 4709WAT    EPW19544   0.449   5.265   6.081  0.0634  0.5016 -0.7909
 4710WAT      O19545   6.364   6.408   1.061  0.0305  0.1506  0.7685
 4710WAT     H119546   6.345   6.442   0.983  0.2996 -0.2565  0.5233
 4710WAT     H219547   6.411   6.337   1.042  1.2815  0.8011  1.3390
 4710WAT    EPW19548   6.368   6.402   1.046  0.3992  0.1687  0.4393
 4711WAT      O19549   7.165   7.415   0.558  0.2082  0.4454  0.3583
 4711WAT     H119550   7.179   7.480   0.500 -0.5317  0.6219  0.3675
 4711WAT     H219551   7.185   7.343   0.513  0.2587  0.6278  0.0863
 4711WAT    EPW19552   7.170   7.414   0.542 -0.2655  0.5935  0.1545
 4712WAT      O19553   3.309   5.963   5.400  0.4075 -0.0604 -0.5453
 4712WAT     H119554   3.338   5.972   5.482  0.3833  0.5542 -0.5994
 4712WAT     H219555   3.287   5.879   5.395 -0.5169  0.1116  0.3897
 4712WAT    EPW19556   3.310   5.952   5.411 -0.2721  0.0902  0.1786
 4713WAT      O19557   4.081   0.277   0.615  0.5481 -0.1451  0.1528
 4713WAT     H119558   4.093   0.298   0.531  0.5088  0.8790  0.4010
 4713WAT     H219559   4.147   0.316   0.656 -0.3584  0.7548  0.8015
 4713WAT    EPW19560   4.092   0.286   0.608 -0.0258  0.4103  0.1015
 4714WAT      O19561   0.202   0.112   5.689 -0.0512 -0.1142 -0.2884
 4714WAT     H119562   0.274   0.088   5.647 -1.0760 -2.3014 -0.9188
 4714WAT     H219563   0.217   0.089   5.771  0.8002  1.5281  0.0731
 4714WAT    EPW19564   0.215   0.105   5.695  0.0932  0.0809 -0.0321
 4715WAT      O19565   1.983   3.901   2.441 -0.0312  0.1546  0.0455
 4715WAT     H119566   2.019   3.980   2.445 -0.3517  0.2444  1.9697
 4715WAT     H219567   2.042   3.849   2.479 -0.2572 -0.3732 -0.3083
 4715WAT    EPW19568   1.997   3.905   2.447 -0.2587  0.4378  0.1311
 4716WAT      O19569   6.679   6.613   5.246 -0.0447  0.3971  0.1528
 4716WAT     H119570   6.699   6.693   5.273  1.3250 -0.1141  0.7236
 4716WAT     H219571   6.698   6.563   5.314 -2.3246 -0.2989  0.3680
 4716WAT    EPW19572   6.685   6.617   5.260 -0.0195  0.3544  0.4903
 4717WAT      O19573   1.474   4.370   0.465  0.2764  0.1938 -0.4994
 4717WAT     H119574   1.529   4.423   0.509 -0.0693  0.0473  0.1176
 4717WAT     H219575   1.485   4.394   0.382  0.8993  0.5192 -0.3299
 4717WAT    EPW19576   1.484   4.381   0.459  0.0983  0.3807  0.1049
 4718WAT      O19577   1.163   3.116   0.999  0.1463 -0.3127  0.3591
 4718WAT     H119578   1.114   3.172   0.955  1.6558  0.6387 -0.1818
 4718WAT     H219579   1.159   3.043   0.952  1.9689  0.7656 -1.6400
 4718WAT    EPW19580   1.155   3.113   0.986 -0.1799  0.2602  0.0250
 4719WAT      O19581   1.762   4.011   6.211 -0.3012 -0.6233  0.3227
 4719WAT     H119582   1.730   3.983   6.135  1.3729 -1.4069 -0.1497
 4719WAT     H219583   1.799   4.087   6.190  0.1697 -0.8447  0.3207
 4719WAT    EPW19584   1.763   4.018   6.196 -0.4738  0.5583  0.0960
 4720WAT      O19585   1.464   6.737   2.487 -0.5243 -0.0139  0.2589
 4720WAT     H119586   1.464   6.670   2.543 -0.0154 -0.8202 -0.6928
 4720WAT     H219587   1.548   6.751   2.472 -0.6569  0.3311 -0.1575
 4720WAT    EPW19588   1.476   6.729   2.493 -0.3156 -0.4483  0.3488
 4721WAT      O19589   7.508   0.042   3.720 -0.3915  0.1187 -0.0828
 4721WAT     H119590   7.560   0.097   3.677 -0.3144 -0.5346 -0.8509
 4721WAT     H219591   7.519  -0.034   3.678 -3.5352  0.3958 -1.6878
 4721WAT    EPW19592   7.517   0.039   3.707 -0.5661 -0.4947  0.2878
 4722WAT      O19593   3.880   3.158   1.112  0.2864  0.1931  0.0239
 4722WAT     H119594   3.917   3.079   1.113 -0.4759 -0.1666  0.0202
 4722WAT     H219595   3.795   3.141   1.104  0.0399  0.9948  0.8658
 4722WAT    EPW19596   3.873   3.144   1.111 -0.4645 -0.4009  0.5142
 4723WAT      O19597   3.269   2.130   1.627  0.3623 -0.0443 -0.0824
 4723WAT     H119598   3.342   2.155   1.667  0.6912  1.4773 -1.5143
 4723WAT     H219599   3.227   2.205   1.612 -0.2302 -0.6306 -1.6133
 4723WAT    EPW19600   3.274   2.145   1.631 -0.7766 -0.1257 -0.0056
 4724WAT      O19601   0.914   2.415   2.268  0.3762 -0.2518  0.0190
 4724WAT     H119602   0.988   2.417   2.315 -0.0187  1.3595  0.6301
 4724WAT     H219603   0.880   2.337   2.286  2.0808 -1.1853 -0.5624
 4724WAT    EPW19604   0.920   2.404   2.277  0.4928  0.6273  0.0503
 4725WAT      O19605   2.387   5.637   0.880  1.2250  0.0409  0.4019
 4725WAT     H119606   2.459   5.654   0.926  1.2836  1.2307 -0.1172
 4725WAT     H219607   2.328   5.614   0.941  1.9254 -0.6045  0.8535
 4725WAT    EPW19608   2.389   5.636   0.896  0.0895 -0.2489 -0.0635
 4726WAT      O19609   6.656   2.252   3.330  0.4649  0.0848 -0.0377
 4726WAT     H119610   6.660   2.337   3.312  0.7137 -0.2205 -1.5764
 4726WAT     H219611   6.608   2.219   3.264 -0.9326 -0.7693  1.3175
 4726WAT    EPW19612   6.649   2.259   3.318 -0.2943 -0.8872  0.2663
 4727WAT      O19613   7.226   4.378   6.599 -0.2709 -0.0659 -0.3623
 4727WAT     H119614   7.270   4.449   6.626 -2.5513  0.8890  1.2005
 4727WAT     H219615   7.274   4.312   6.629 -0.9531  0.9369  3.6091
 4727WAT    EPW19616   7.240   4.379   6.608 -0.3255 -0.0156 -0.4936
 4728WAT      O19617   7.559   5.827   7.255  0.7700 -0.0034 -0.2613
 4728WAT     H119618   7.536   5.876   7.323  2.1097  1.1104 -0.5760
 4728WAT     H219619   7.490   5.833   7.201  0.0071 -0.2949  0.6546
 4728WAT    EPW19620   7.545   5.835   7.257  0.3313  0.1812  0.0945
 4729WAT      O19621   2.344   3.490   5.839  0.8078  0.1734  0.0061
 4729WAT     H119622   2.338   3.506   5.753 -0.4074 -0.8605 -0.1338
 4729WAT     H219623   2.272   3.444   5.856  1.2312  0.0207  1.5124
 4729WAT    EPW19624   2.333   3.485   5.829 -0.0344  0.0713 -0.5091
 4730WAT      O19625   0.545   5.083   5.635  0.2218  0.8221  0.2256
 4730WAT     H119626   0.504   5.082   5.558  0.5767 -0.4141  0.0300
 4730WAT     H219627   0.585   5.006   5.638  2.3382  1.8509  0.5099
 4730WAT    EPW19628   0.545   5.072   5.624  0.6852  0.7360  0.3455
 4731WAT      O19629   2.825   5.168   5.254 -0.2371  0.1704 -0.3254
 4731WAT     H119630   2.895   5.191   5.207  0.2799  0.7919  0.7390
 4731WAT     H219631   2.764   5.155   5.193 -0.1066  2.7368 -1.1126
 4731WAT    EPW19632   2.826   5.169   5.238 -0.0790 -0.3315  1.3347
 4732WAT      O19633   4.852   1.105   0.198 -0.1407  0.4385  0.1620
 4732WAT     H119634   4.845   1.118   0.284  0.3081  0.1287  0.2439
 4732WAT     H219635   4.782   1.056   0.180  0.0108  0.1157  0.4306
 4732WAT    EPW19636   4.840   1.100   0.208  0.3808  0.0347  0.0218
 4733WAT      O19637   7.145   6.910   0.976 -1.0459 -0.4772 -0.3271
 4733WAT     H119638   7.078   6.874   1.019 -0.6356 -0.6029  0.2327
 4733WAT     H219639   7.199   6.842   0.963 -1.2860 -0.4982 -1.3135
 4733WAT    EPW19640   7.143   6.895   0.981  0.5129 -0.2750  0.3295
 4734WAT      O19641   7.511   1.234   7.530  0.0967  0.5825  0.0454
 4734WAT     H119642   7.485   1.176   7.469  1.2082 -1.8408  1.6891
 4734WAT     H219643   7.452   1.225   7.593  0.5582  0.8926  0.5298
 4734WAT    EPW19644   7.498   1.224   7.530 -0.0491  0.2285  0.6369
 4735WAT      O19645   4.515   6.903   6.068 -0.1670 -0.2901  0.7035
 4735WAT     H119646   4.463   6.963   6.105 -0.1886 -0.0854  0.3415
 4735WAT     H219647   4.514   6.837   6.126  0.4746  0.3573  1.4798
 4735WAT    EPW19648   4.507   6.902   6.082 -0.0258 -0.0263  0.1053
 4736WAT      O19649   1.233   2.048   3.107  0.3822 -0.6527  0.0692
 4736WAT     H119650   1.154   2.081   3.122  0.6387  0.0271 -0.0285
 4736WAT     H219651   1.283   2.119   3.098  0.7578 -1.0696 -1.2271
 4736WAT    EPW19652   1.229   2.063   3.108  0.0799  0.8345  0.4967
 4737WAT      O19653   2.177   4.523   5.831 -0.2967 -0.3939 -0.0015
 4737WAT     H119654   2.170   4.502   5.747 -1.8330 -3.0210  0.6545
 4737WAT     H219655   2.263   4.529   5.845 -0.0092 -0.4876 -1.6262
 4737WAT    EPW19656   2.189   4.521   5.821 -0.1760 -0.0740  0.5100
 4738WAT      O19657   3.970   7.304   6.723 -0.6946  0.0495 -0.5903
 4738WAT     H119658   3.979   7.218   6.714  1.1130  0.2954 -1.5114
 4738WAT     H219659   4.003   7.320   6.802  1.6265  0.1814 -1.5125
 4738WAT    EPW19660   3.976   7.294   6.733 -0.5545 -0.0181  0.4862
 4739WAT      O19661   3.157   7.014   5.737  0.1150 -0.3065  0.3187
 4739WAT     H119662   3.178   7.096   5.718  0.5691 -0.6503 -0.7064
 4739WAT     H219663   3.167   6.971   5.662  0.5429 -1.4312  0.9812
 4739WAT    EPW19664   3.162   7.020   5.723 -0.1378  0.1337 -1.0386
 4740WAT      O19665   3.648   2.049   2.765 -0.7001  0.1224 -0.1200
 4740WAT     H119666   3.699   2.110   2.729  0.2642  0.3555  1.5169
 4740WAT     H219667   3.688   2.031   2.841 -0.0563 -3.6329 -1.1072
 4740WAT    EPW19668   3.661   2.055   2.771 -0.1637  0.7758 -0.0182
 4741WAT      O19669   2.325   2.850   4.671  0.3031  0.5399  0.0693
 4741WAT     H119670   2.298   2.926   4.637  0.3516  0.4898 -0.0784
 4741WAT     H219671   2.252   2.818   4.707  0.0813  0.2300 -0.6522
 4741WAT    EPW19672   2.310   2.857   4.672  0.1817 -0.2083 -0.9015
 4742WAT      O19673   4.864   5.715   1.916 -0.4400  0.0990  0.3280
 4742WAT     H119674   4.785   5.733   1.883 -0.3737  0.1229  0.1844
 4742WAT     H219675   4.918   5.726   1.848 -0.1081  1.6682  0.7957
 4742WAT    EPW19676   4.860   5.720   1.901  0.1776  0.4182  0.1910
 4743WAT      O19677   1.279   2.393   5.101  0.3294 -0.4655 -0.0405
 4743WAT     H119678   1.263   2.391   5.187 -0.1256 -0.9821 -0.1252
 4743WAT     H219679   1.204   2.364   5.066  0.1419  0.7189 -0.6690
 4743WAT    EPW19680   1.266   2.388   5.109 -0.3577 -0.3199 -0.2248
 4744WAT      O19681   2.002   2.307   6.671  0.1906 -0.3003  0.3475
 4744WAT     H119682   1.997   2.323   6.756 -0.5280 -1.3190  0.5197
 4744WAT     H219683   1.930   2.344   6.639  1.0293  1.0649 -0.0015
 4744WAT    EPW19684   1.991   2.315   6.679  0.7347 -0.2059 -0.0020
 4745WAT      O19685   4.069   0.579   5.940 -0.2241  0.5827 -0.5116
 4745WAT     H119686   4.150   0.578   5.909  0.0460  1.2906  0.1347
 4745WAT     H219687   4.060   0.659   5.972 -0.4807 -0.0829  1.2045
 4745WAT    EPW19688   4.080   0.590   5.940 -0.0342  0.3995 -0.4783
 4746WAT      O19689   6.175   2.477   3.505 -0.3021 -0.0652 -0.1193
 4746WAT     H119690   6.118   2.538   3.532  0.1846  0.2782  0.1471
 4746WAT     H219691   6.195   2.434   3.578  0.3923  0.3367 -0.0639
 4746WAT    EPW19692   6.169   2.480   3.520  0.0538 -0.4478  0.6763
 4747WAT      O19693   3.130   2.503   6.697 -0.4268 -0.1553  0.2209
 4747WAT     H119694   3.157   2.584   6.714  1.0498 -0.3101 -1.1330
 4747WAT     H219695   3.126   2.466   6.776  4.5619 -0.3847  0.6971
 4747WAT    EPW19696   3.133   2.510   6.711 -0.7122 -0.2211 -0.0922
 4748WAT      O19697   4.755   6.868   7.280  0.7692  0.2504 -0.7601
 4748WAT     H119698   4.698   6.851   7.217  0.8602 -0.3890 -0.6746
 4748WAT     H219699   4.820   6.811   7.266  0.1188 -0.9598  0.7809
 4748WAT    EPW19700   4.756   6.857   7.269 -0.0699 -0.0876  0.0015
 4749WAT      O19701   1.074   1.932   1.469  0.5818  0.3744 -0.1452
 4749WAT     H119702   1.067   1.925   1.383  0.8301 -2.1445 -0.0381
 4749WAT     H219703   0.993   1.955   1.495  0.3675  0.5915 -0.9874
 4749WAT    EPW19704   1.061   1.935   1.460 -0.2542 -0.7716 -0.4060
 4750WAT      O19705   2.438   0.753   7.348 -0.1963 -0.1000 -0.2596
 4750WAT     H119706   2.490   0.791   7.407  0.2708 -0.5015 -0.3987
 4750WAT     H219707   2.481   0.764   7.273 -0.8362  0.4984 -0.5531
 4750WAT    EPW19708   2.452   0.760   7.346 -0.5218 -0.3854 -0.4818
 4751WAT      O19709   0.042   5.093   1.761  0.1169  0.3403 -0.5396
 4751WAT     H119710   0.050   5.017   1.720 -0.0442  0.3913 -0.6653
 4751WAT     H219711   0.123   5.127   1.758  0.5979 -0.5579  0.9543
 4751WAT    EPW19712   0.055   5.087   1.755  0.2563 -0.4084 -0.3401
 4752WAT      O19713   6.325   1.907   3.043  0.1272  0.0785 -0.6525
 4752WAT     H119714   6.270   1.840   3.037  0.2702 -0.1069 -0.0029
 4752WAT     H219715   6.393   1.883   2.994  0.3008 -0.3755 -0.1928
 4752WAT    EPW19716   6.327   1.894   3.035 -0.1410  0.0477 -0.2053
 4753WAT      O19717   2.175   7.060   2.398 -0.4467 -0.0054 -0.1908
 4753WAT     H119718   2.204   7.082   2.477  0.3496 -2.0125  0.1345
 4753WAT     H219719   2.116   7.122   2.379 -0.7980  0.4051  2.0477
 4753WAT    EPW19720   2.170   7.072   2.407  0.1591 -0.5829  0.1580
 4754WAT      O19721   0.638   5.097   1.775  0.2569 -0.3239  0.2292
 4754WAT     H119722   0.651   5.012   1.763 -1.5643 -0.4665 -1.1549
 4754WAT     H219723   0.628   5.129   1.694 -0.2159  0.9834  0.7611
 4754WAT    EPW19724   0.638   5.089   1.762  0.0820 -0.2083  1.1249
 4755WAT      O19725   3.543   7.472   2.290  0.1696 -0.6458 -0.3243
 4755WAT     H119726   3.506   7.396   2.266  0.4546 -0.4803 -1.3197
 4755WAT     H219727   3.476   7.528   2.291  0.5284 -0.0159 -3.5357
 4755WAT    EPW19728   3.528   7.469   2.287 -0.1555 -0.2464 -0.3732
 4756WAT      O19729   0.462   1.612   6.079  0.1566 -0.0135  0.2034
 4756WAT     H119730   0.494   1.636   6.002  0.6795  2.1465  1.0268
 4756WAT     H219731   0.379   1.593   6.062  1.1575 -3.8710 -1.6224
 4756WAT    EPW19732   0.455   1.612   6.065  0.3950  0.0450 -0.4311
 4757WAT      O19733   2.296   2.498   2.207 -0.0909 -0.4935 -0.3098
 4757WAT     H119734   2.325   2.550   2.271 -2.6726 -1.0213  1.4633
 4757WAT     H219735   2.367   2.455   2.181  0.9380 -1.2216  3.1972
 4757WAT    EPW19736   2.311   2.500   2.213 -0.1168 -0.1934 -0.3677
 4758WAT      O19737   6.078   2.577   0.249 -0.1394 -0.3061 -0.3831
 4758WAT     H119738   6.070   2.492   0.268 -1.7322 -0.3038 -0.9050
 4758WAT     H219739   6.083   2.615   0.328 -2.8966 -0.6325  0.0528
 4758WAT    EPW19740   6.078   2.570   0.264 -0.4088  0.2931  0.4145
 4759WAT      O19741   0.714   2.345   6.289 -0.2045 -0.4188 -0.4088
 4759WAT     H119742   0.744   2.278   6.336  0.5552 -0.7900 -1.3692
 4759WAT     H219743   0.757   2.337   6.213 -1.3127  0.1968 -1.1394
 4759WAT    EPW19744   0.725   2.334   6.285 -0.3843  0.6875  0.4510
 4760WAT      O19745   3.237   5.113   3.123 -0.1450  0.2557 -0.5910
 4760WAT     H119746   3.180   5.047   3.127 -0.5276  0.5478 -1.0039
 4760WAT     H219747   3.244   5.140   3.205 -1.5763  1.0096 -0.6655
 4760WAT    EPW19748   3.229   5.107   3.135  0.0127 -0.3701  0.4741
 4761WAT      O19749   0.457   1.908   0.720 -0.5326 -0.1811 -0.1289
 4761WAT     H119750   0.447   1.827   0.690  2.5430 -1.5032  1.8648
 4761WAT     H219751   0.409   1.908   0.793 -1.8898  0.4370 -0.9883
 4761WAT    EPW19752   0.448   1.896   0.726  0.0361 -0.1088 -0.3839
 4762WAT      O19753   4.958   3.462   2.894  0.2427  0.2881  0.5483
 4762WAT     H119754   4.949   3.394   2.839  1.2408 -0.3353  1.1205
 4762WAT     H219755   5.035   3.497   2.871  0.2725  0.5225  1.0025
 4762WAT    EPW19756   4.968   3.457   2.883 -0.3603  0.1642 -0.3445
 4763WAT      O19757   7.508   1.946   2.390 -0.2849  0.5223  1.0489
 4763WAT     H119758   7.510   1.859   2.398 -0.8311  0.4996  1.0026
 4763WAT     H219759   7.449   1.970   2.449 -0.2559  0.8462  0.9440
 4763WAT    EPW19760   7.500   1.936   2.400  0.0122 -0.1579 -0.4097
 4764WAT      O19761   6.816   2.276   1.179 -0.0263 -0.1695 -0.0485
 4764WAT     H119762   6.800   2.340   1.235 -1.5782 -0.0092 -0.6126
 4764WAT     H219763   6.855   2.215   1.227  1.0919  1.0180  0.5858
 4764WAT    EPW19764   6.819   2.276   1.194  0.5419  0.2365  0.1242
 4765WAT      O19765   2.985   7.330   0.286  0.2315  0.0798  0.2026
 4765WAT     H119766   3.052   7.380   0.259  0.6838  0.2278  1.4892
 4765WAT     H219767   3.023   7.272   0.339 -0.2830 -1.6936 -1.2784
 4765WAT    EPW19768   3.001   7.329   0.290  0.9278 -0.0223  0.1367
 4766WAT      O19769   3.662   6.611   2.613  0.4104  0.2613  0.9997
 4766WAT     H119770   3.666   6.689   2.653  1.4514 -0.3301  2.1020
 4766WAT     H219771   3.586   6.615   2.570 -0.4985  1.1782  2.5610
 4766WAT    EPW19772   3.651   6.623   2.613  0.2918  0.3498 -0.0562
 4767WAT      O19773   6.867   0.398   3.008 -0.2346 -0.7824  1.1494
 4767WAT     H119774   6.921   0.427   3.070  0.2344 -1.2557  0.9709
 4767WAT     H219775   6.907   0.327   2.977  0.4910  0.4478 -0.9690
 4767WAT    EPW19776   6.881   0.392   3.013 -0.6499 -0.7059 -0.5062
 4768WAT      O19777   6.866   2.549   7.560  0.8147 -0.0726  0.2109
 4768WAT     H119778   6.896   2.586   7.633  1.0894 -0.0854  0.1065
 4768WAT     H219779   6.799   2.500   7.588 -0.4848  1.5788  0.1715
 4768WAT    EPW19780   6.860   2.548   7.575 -0.6147  0.1583 -0.1482
 4769WAT      O19781   2.256   4.000   6.357 -0.2264 -0.0198 -0.2319
 4769WAT     H119782   2.285   3.975   6.278 -1.2896  0.8168 -0.9081
 4769WAT     H219783   2.186   4.048   6.339 -1.6157 -1.3756  1.3197
 4769WAT    EPW19784   2.250   4.003   6.343  0.0741 -0.8507 -0.2592
 4770WAT      O19785   3.643   4.657   7.167 -0.2680 -0.2807  0.0144
 4770WAT     H119786   3.573   4.608   7.149  0.2411 -1.3106  0.7457
 4770WAT     H219787   3.710   4.609   7.140  0.2152  0.3458  0.0589
 4770WAT    EPW19788   3.643   4.643   7.160  1.2636  0.1638  0.2262
 4771WAT      O19789   4.831   0.530   5.558 -0.1446  0.5783  0.1376
 4771WAT     H119790   4.761   0.527   5.507  1.2053 -0.5112 -1.7865
 4771WAT     H219791   4.894   0.496   5.508  1.5445  0.6045  2.1230
 4771WAT    EPW19792   4.830   0.525   5.543 -0.6095  0.1091 -0.1182
 4772WAT      O19793   0.105   1.062   5.590  0.4446 -0.6604  0.2603
 4772WAT     H119794   0.121   0.998   5.647 -0.1690  0.5596  1.8857
 4772WAT     H219795   0.140   1.033   5.516  1.0400 -2.4371  1.1872
 4772WAT    EPW19796   0.113   1.049   5.587 -0.5493 -0.1131 -0.8291
 4773WAT      O19797   7.266   5.977   0.651 -0.4852  0.4141 -0.0285
 4773WAT     H119798   7.191   6.021   0.654 -0.2456  1.2616 -3.0514
 4773WAT     H219799   7.251   5.915   0.592  1.1943  0.6720 -0.7944
 4773WAT    EPW19800   7.253   5.974   0.643 -0.4481  0.0451  0.4720
 4774WAT      O19801   4.208   5.864   5.339 -0.6311  0.5898 -0.1675
 4774WAT     H119802   4.232   5.946   5.320 -0.1148  0.0125 -2.1728
 4774WAT     H219803   4.284   5.824   5.354 -0.6878 -0.0625 -1.5466
 4774WAT    EPW19804   4.223   5.870   5.339  0.0141  0.5451 -0.5346
 4775WAT      O19805   1.809   2.156   1.779 -0.4065  0.1424  0.1412
 4775WAT     H119806   1.830   2.164   1.864  0.5950 -0.4685 -0.0306
 4775WAT     H219807   1.879   2.186   1.737 -0.1328 -1.2417 -0.4605
 4775WAT    EPW19808   1.822   2.161   1.786 -0.2066  0.2917  0.4531
 4776WAT      O19809   5.684   1.937   3.633  0.0555  0.7082 -0.2250
 4776WAT     H119810   5.657   1.859   3.604 -0.4215  0.6870  0.2522
 4776WAT     H219811   5.725   1.918   3.708 -1.2366  1.0312  0.5914
 4776WAT    EPW19812   5.686   1.922   3.640  0.1847  0.1825 -0.1410
 4777WAT      O19813   3.053   3.017   3.042 -0.2489  0.1615  0.2540
 4777WAT     H119814   3.052   3.030   2.955  1.2947  2.5280  0.4794
 4777WAT     H219815   3.102   2.946   3.052 -1.2139 -0.6861 -0.8369
 4777WAT    EPW19816   3.060   3.009   3.030  0.2713 -0.4741  0.4191
 4778WAT      O19817   3.805   0.804   7.009 -0.1141 -0.5331  0.1670
 4778WAT     H119818   3.827   0.778   7.089 -2.2340 -1.5513  0.4970
 4778WAT     H219819   3.881   0.828   6.973  0.8759  0.1495  2.5225
 4778WAT    EPW19820   3.819   0.804   7.016 -0.0522  0.4572 -0.2726
 4779WAT      O19821   6.201   7.362   3.338  0.1426 -0.0741 -0.1922
 4779WAT     H119822   6.168   7.303   3.283 -0.7646 -0.4002  0.6670
 4779WAT     H219823   6.241   7.314   3.399  1.3517  0.2912 -0.6805
 4779WAT    EPW19824   6.202   7.346   3.339 -0.2551  0.0941 -0.0310
 4780WAT      O19825   5.702   5.712   2.231  0.0320  0.1785  0.2913
 4780WAT     H119826   5.628   5.749   2.258 -0.1646  0.4976 -0.6596
 4780WAT     H219827   5.761   5.777   2.235  0.2988 -0.1020  1.1508
 4780WAT    EPW19828   5.700   5.727   2.236  0.1939 -0.3098 -0.5416
 4781WAT      O19829   2.244   3.017   1.790  0.0662  0.2550  0.5474
 4781WAT     H119830   2.315   2.972   1.766  0.5411  1.0866  0.3457
 4781WAT     H219831   2.277   3.093   1.817 -0.6361  0.1422  1.7816
 4781WAT    EPW19832   2.259   3.022   1.790  0.5613 -0.3237  0.0517
 4782WAT      O19833   0.426   6.149   2.971 -0.1154  0.0779  0.1309
 4782WAT     H119834   0.405   6.185   3.048  2.4225  0.2964  0.8077
 4782WAT     H219835   0.384   6.199   2.913 -0.7523  0.9363  1.2856
 4782WAT    EPW19836   0.417   6.162   2.974  0.2680  0.2030 -0.3176
 4783WAT      O19837   1.066   0.819   1.814  0.5435 -0.1475 -0.2173
 4783WAT     H119838   1.114   0.864   1.756  1.7884  0.7794  1.4512
 4783WAT     H219839   1.124   0.769   1.855 -0.3390 -0.9063  0.1494
 4783WAT    EPW19840   1.081   0.818   1.811  0.3265  0.1210 -0.0805
 4784WAT      O19841   1.369   5.485   3.726 -0.3887  0.4119  0.1217
 4784WAT     H119842   1.340   5.564   3.749 -0.7395 -0.0575  1.3924
 4784WAT     H219843   1.305   5.454   3.676 -0.4440  0.7718 -0.0312
 4784WAT    EPW19844   1.355   5.492   3.722 -0.1448  0.2905 -0.5187
 4785WAT      O19845   4.246   5.310   6.798 -0.0576 -0.2442 -0.2756
 4785WAT     H119846   4.287   5.301   6.874 -1.7987  2.8446  1.2372
 4785WAT     H219847   4.182   5.251   6.802  0.7756 -1.1635 -0.1044
 4785WAT    EPW19848   4.243   5.300   6.810  0.0424 -1.2859 -0.3681
 4786WAT      O19849   6.619  -0.017   7.306  0.2922 -0.2667 -0.1239
 4786WAT     H119850   6.694  -0.026   7.350  0.0734 -1.5494  0.0304
 4786WAT     H219851   6.589   0.061   7.331  1.4268  0.1409  0.0251
 4786WAT    EPW19852   6.625  -0.007   7.316  0.4371  0.2475  0.3729
 4787WAT      O19853   0.709   7.502   0.083  0.1313 -0.6558  0.0174
 4787WAT     H119854   0.750   7.430   0.057  0.1030 -0.3029 -1.0525
 4787WAT     H219855   0.756   7.530   0.151 -1.0455 -2.8204  1.8836
 4787WAT    EPW19856   0.722   7.496   0.089  0.2901 -0.3865 -0.4270
 4788WAT      O19857   1.237   6.375   2.969  0.0859 -0.2436 -0.4141
 4788WAT     H119858   1.315   6.342   2.990 -0.4797 -0.7752  0.9833
 4788WAT     H219859   1.239   6.456   3.000 -0.4776 -0.7911  1.1929
 4788WAT    EPW19860   1.249   6.382   2.977 -0.3565  0.0019  0.0859
 4789WAT      O19861   1.561   6.831   0.343 -0.2340  0.4282  0.2321
 4789WAT     H119862   1.643   6.859   0.335 -0.9040  2.4995 -0.1461
 4789WAT     H219863   1.552   6.774   0.278  0.8163  0.4142  0.0836
 4789WAT    EPW19864   1.572   6.827   0.332  0.0677  0.0960  0.2547
 4790WAT      O19865   6.210   1.979   6.563  0.2088  0.1348  0.2618
 4790WAT     H119866   6.259   2.051   6.559  1.0100 -0.4518 -0.8458
 4790WAT     H219867   6.205   1.962   6.648  1.4119  0.5653  0.4345
 4790WAT    EPW19868   6.216   1.987   6.575  0.8644 -0.2400 -0.2886
 4791WAT      O19869   7.361   6.296   4.907  0.5246  0.2659 -0.0046
 4791WAT     H119870   7.421   6.359   4.901  0.5805  0.2085 -0.0473
 4791WAT     H219871   7.407   6.223   4.892  0.6107  0.1463  0.7861
 4791WAT    EPW19872   7.377   6.294   4.904 -0.3311 -0.5050  0.0894
 4792WAT      O19873   2.068   7.034   6.417 -0.5198  0.1368 -0.0371
 4792WAT     H119874   1.996   6.985   6.418 -1.0980  0.8598  2.5684
 4792WAT     H219875   2.041   7.109   6.382 -0.3999 -0.3929 -1.2780
 4792WAT    EPW19876   2.053   7.038   6.412  0.0059  0.0880  0.4062
 4793WAT      O19877   5.287   1.395   7.121 -0.2066 -0.4953 -0.0147
 4793WAT     H119878   5.325   1.451   7.177  0.9704 -0.6919 -0.5850
 4793WAT     H219879   5.319   1.418   7.044 -1.9478 -0.1193 -0.6745
 4793WAT    EPW19880   5.297   1.407   7.118  0.0048 -0.1239  0.0155
 4794WAT      O19881   5.939   2.284   1.366  0.5176 -0.5407 -0.1572
 4794WAT     H119882   6.023   2.305   1.374  0.0032  1.8619 -0.2483
 4794WAT     H219883   5.922   2.302   1.282 -0.2004 -0.4431  0.0017
 4794WAT    EPW19884   5.949   2.290   1.355 -0.1220  0.3875 -0.4464
 4795WAT      O19885   2.906   2.230   5.208  0.2436  0.0754 -0.3461
 4795WAT     H119886   2.981   2.231   5.162 -0.2877  0.3553 -1.2287
 4795WAT     H219887   2.855   2.285   5.164 -0.0646  0.8855  0.9742
 4795WAT    EPW19888   2.910   2.238   5.195  0.0835 -0.8348 -0.1002
 4796WAT      O19889   7.054   2.562   0.844 -0.1778  0.3216 -0.6276
 4796WAT     H119890   7.098   2.613   0.900  1.1008 -1.3117 -0.0457
 4796WAT     H219891   7.057   2.606   0.770  3.1648  0.0846 -0.8157
 4796WAT    EPW19892   7.061   2.576   0.842 -0.1414  0.4167  0.0939
 4797WAT      O19893   2.872   1.443   7.401 -0.6714  0.4208 -0.3639
 4797WAT     H119894   2.935   1.490   7.438 -1.1065  0.9015 -0.2287
 4797WAT     H219895   2.858   1.379   7.459  0.7747 -0.6075 -1.1125
 4797WAT    EPW19896   2.879   1.440   7.415  0.0461  0.0989  0.4511
 4798WAT      O19897   6.949   2.549   3.220  0.9370 -0.3997  0.1069
 4798WAT     H119898   6.868   2.573   3.242  1.5372 -0.1559  2.2819
 4798WAT     H219899   6.948   2.462   3.230  0.9676 -0.3932  0.1628
 4798WAT    EPW19900   6.937   2.540   3.225 -0.1795  0.2804 -0.1530
 4799WAT      O19901   2.791   1.703   2.435  0.2774  0.1976 -0.0921
 4799WAT     H119902   2.720   1.746   2.462 -0.5350 -1.7481  1.0602
 4799WAT     H219903   2.776   1.691   2.350 -0.6479  0.0655  0.0806
 4799WAT    EPW19904   2.778   1.708   2.426 -0.1504  0.2453 -0.4590
 4800WAT      O19905   3.840   7.338   2.761  0.1196  0.1079  0.0381
 4800WAT     H119906   3.925   7.319   2.753 -0.0747 -0.4111 -0.8629
 4800WAT     H219907   3.820   7.374   2.684 -0.2047  1.3408  0.6752
 4800WAT    EPW19908   3.850   7.341   2.748 -0.0865  0.0582  0.1968
 4801WAT      O19909   7.221   0.055   2.531  0.0499  0.1474 -0.0622
 4801WAT     H119910   7.277   0.025   2.472  0.6414  0.4739  0.3287
 4801WAT     H219911   7.185   0.124   2.491 -0.1745 -0.1373 -0.3606
 4801WAT    EPW19912   7.224   0.061   2.516  0.2529 -0.4578  0.5083
 4802WAT      O19913   7.014   0.655   0.652  0.6243  0.1071  0.5950
 4802WAT     H119914   7.015   0.728   0.700  1.2099  0.8594 -0.5194
 4802WAT     H219915   7.080   0.608   0.684  0.4588  0.2187  1.0991
 4802WAT    EPW19916   7.024   0.659   0.664 -0.5060 -0.7555 -0.1397
 4803WAT      O19917   3.945   7.459   0.035  0.4988  0.2859 -0.5700
 4803WAT     H119918   3.877   7.427   0.080  1.1636  0.7013  0.7768
 4803WAT     H219919   4.013   7.445   0.088  1.9785 -2.4651 -2.8736
 4803WAT    EPW19920   3.945   7.452   0.050 -0.2401  0.5570  0.0420
 4804WAT      O19921   2.316   7.140   5.831  0.1581  0.1093  0.2439
 4804WAT     H119922   2.260   7.168   5.771  1.2854  2.5380  0.2222
 4804WAT     H219923   2.317   7.053   5.819 -3.0915  0.0082 -0.1033
 4804WAT    EPW19924   2.308   7.131   5.820  0.0226 -0.4027 -0.0040
 4805WAT      O19925   1.748   6.724   3.204  0.6055  0.6201  0.0433
 4805WAT     H119926   1.752   6.801   3.244  0.3142  0.9547 -0.5561
 4805WAT     H219927   1.773   6.667   3.266  2.1445  1.3100  0.1131
 4805WAT    EPW19928   1.752   6.727   3.219 -0.3595 -0.1942  0.2111
 4806WAT      O19929   0.768   7.431   0.381 -0.5307 -0.0191  0.0184
 4806WAT     H119930   0.818   7.374   0.339 -1.8419 -0.0703 -1.5615
 4806WAT     H219931   0.796   7.508   0.353  0.5005  0.1230  1.3143
 4806WAT    EPW19932   0.779   7.434   0.371  0.1887  0.3193 -0.2136
 4807WAT      O19933   3.309   3.055   0.632 -0.1726 -0.3230  0.6512
 4807WAT     H119934   3.278   3.134   0.612 -0.5933 -0.3734  1.0889
 4807WAT     H219935   3.332   3.063   0.716 -0.1518 -0.6429  0.6757
 4807WAT    EPW19936   3.308   3.068   0.641  0.0412 -0.0503  0.5273
 4808WAT      O19937   3.850   0.730   1.657  0.5673  0.2250 -0.0750
 4808WAT     H119938   3.887   0.779   1.595 -1.4878  0.9132 -0.8385
 4808WAT     H219939   3.767   0.724   1.632  0.5127 -2.9751  0.4861
 4808WAT    EPW19940   3.843   0.737   1.644  1.1306 -0.4403 -0.0783
 4809WAT      O19941   0.378   1.217   0.779  0.2573 -0.3357 -0.2341
 4809WAT     H119942   0.368   1.132   0.798  1.4297 -0.8353 -1.7005
 4809WAT     H219943   0.328   1.228   0.708  1.6612 -0.3171 -1.2547
 4809WAT    EPW19944   0.369   1.206   0.771 -0.6226 -0.0375  0.6213
 4810WAT      O19945   7.469   3.385   7.065  0.2708 -0.2793 -0.2709
 4810WAT     H119946   7.410   3.334   7.104  0.0513 -0.3668 -0.7055
 4810WAT     H219947   7.539   3.379   7.117 -0.2333  0.1590  0.4786
 4810WAT    EPW19948   7.471   3.377   7.078 -0.4853 -0.1200 -0.1650
 4811WAT      O19949   0.212   2.787   6.477  0.1915 -0.1870 -0.5039
 4811WAT     H119950   0.181   2.714   6.512 -0.6992 -0.6732 -2.2401
 4811WAT     H219951   0.187   2.783   6.394  2.1768  0.9589 -1.2178
 4811WAT    EPW19952   0.204   2.776   6.470  0.4137  0.7897  0.0498
 4812WAT      O19953   4.273   1.172   1.784  0.6342 -0.3168 -0.3069
 4812WAT     H119954   4.287   1.086   1.783 -0.6815 -0.5466 -0.9944
 4812WAT     H219955   4.323   1.202   1.719 -1.1856 -1.0097 -2.1557
 4812WAT    EPW19956   4.282   1.164   1.774 -0.2186 -0.6584 -0.2346
 4813WAT      O19957   4.749   0.746   5.208  0.5735 -0.6294 -0.5956
 4813WAT     H119958   4.774   0.781   5.132  0.7334 -0.0981 -0.3039
 4813WAT     H219959   4.824   0.734   5.251  0.3490  1.2406  0.4004
 4813WAT    EPW19960   4.764   0.749   5.203 -0.6558 -0.2974  0.0756
 4814WAT      O19961   0.841   6.983   4.605  0.0592  0.2456 -0.4816
 4814WAT     H119962   0.804   7.037   4.663 -0.1276  0.1212 -0.4872
 4814WAT     H219963   0.855   6.910   4.651  0.6389  0.4167 -0.3753
 4814WAT    EPW19964   0.838   6.980   4.621  0.2136 -0.5811  0.0701
 4815WAT      O19965   6.277   0.862   4.074 -0.5055 -0.2278  0.5934
 4815WAT     H119966   6.330   0.916   4.118  0.5058 -1.4933  0.9910
 4815WAT     H219967   6.303   0.872   3.991 -1.3768  1.0145  0.4400
 4815WAT    EPW19968   6.289   0.872   4.068 -0.2725 -0.2230 -0.2175
 4816WAT      O19969   0.303   1.658   6.378  0.2241 -0.7185  0.4733
 4816WAT     H119970   0.284   1.597   6.319  0.6174 -0.3690 -0.0220
 4816WAT     H219971   0.294   1.733   6.334 -0.4907 -0.4006  1.1386
 4816WAT    EPW19972   0.299   1.660   6.363  1.0669 -0.0086 -0.2337
 4817WAT      O19973   3.727   1.546   4.583  0.1527 -0.0897  0.0553
 4817WAT     H119974   3.689   1.488   4.636  0.8623 -0.8738 -0.2763
 4817WAT     H219975   3.697   1.623   4.612 -0.4507 -0.5881  0.7855
 4817WAT    EPW19976   3.717   1.549   4.595  0.2210 -0.5951  0.8413
 4818WAT      O19977   5.019   3.647   1.692 -0.1011  0.0108 -0.4964
 4818WAT     H119978   4.931   3.647   1.693 -0.1665  0.8609 -2.2253
 4818WAT     H219979   5.038   3.608   1.616  1.0749 -0.8498  0.2013
 4818WAT    EPW19980   5.009   3.641   1.681  0.4134 -0.5895 -0.4453
 4819WAT      O19981   4.997   1.425   2.866  0.0299  0.8657  0.4669
 4819WAT     H119982   5.056   1.451   2.924  2.9777  1.9782 -2.6664
 4819WAT     H219983   5.019   1.342   2.851 -1.9413 -0.0422  2.1306
 4819WAT    EPW19984   5.009   1.417   2.872 -0.1846  0.1684 -0.2059
 4820WAT      O19985   1.592   2.453   1.900  0.6617  0.3615  0.4569
 4820WAT     H119986   1.579   2.393   1.963 -4.0592  1.0144  0.4667
 4820WAT     H219987   1.584   2.529   1.943 -0.8154  0.8398 -0.6199
 4820WAT    EPW19988   1.589   2.456   1.916  0.0217  0.3134  0.8419
 4821WAT      O19989   3.896   1.865   7.248 -0.2631 -0.5402 -0.0218
 4821WAT     H119990   3.815   1.853   7.218  1.1082  0.5557 -4.9932
 4821WAT     H219991   3.928   1.784   7.253 -0.7738 -0.8384 -1.1924
 4821WAT    EPW19992   3.889   1.851   7.244  0.6572  0.5426  0.2302
 4822WAT      O19993   0.580   3.355   1.645  0.1030  0.2311  0.2497
 4822WAT     H119994   0.628   3.286   1.667 -0.6973 -0.9224 -1.4173
 4822WAT     H219995   0.507   3.345   1.692 -0.0008 -0.0420  0.0297
 4822WAT    EPW19996   0.576   3.344   1.655 -0.9182 -0.1653  0.1180
 4823WAT      O19997   4.317   1.384   4.577  0.8242 -0.2517  0.0804
 4823WAT     H119998   4.304   1.437   4.509 -0.0529  0.3824  0.7113
 4823WAT     H219999   4.375   1.326   4.548  0.4317 -0.0210 -1.2159
 4823WAT    EPW20000   4.324   1.383   4.563 -0.3286 -0.1287 -0.0850
 4824WAT      O20001   3.621   0.784   5.186  0.2931 -0.6144 -0.4295
 4824WAT     H120002   3.664   0.712   5.166  1.8565 -0.4683  1.9858
 4824WAT     H220003   3.540   0.756   5.204  0.6739 -1.6503 -0.3074
 4824WAT    EPW20004   3.615   0.769   5.186 -0.3626 -0.1124 -0.0767
 4825WAT      O20005   5.541   4.643   0.093  0.5366  0.1702  0.1704
 4825WAT     H120006   5.604   4.691   0.130  0.7174  0.7873 -0.8785
 4825WAT     H220007   5.519   4.586   0.155  1.5030  0.5252  0.8654
 4825WAT    EPW20008   5.547   4.642   0.108  0.6312  0.3034 -0.0439
 4826WAT      O20009   2.519   5.767   2.063  0.1736  0.5232  0.6202
 4826WAT     H120010   2.553   5.846   2.072  0.5440  0.4907 -0.3856
 4826WAT     H220011   2.532   5.748   1.979 -2.9649  0.8149 -0.0687
 4826WAT    EPW20012   2.526   5.776   2.052 -0.3950  0.1687  1.4355
 4827WAT      O20013   6.094   0.628   6.114  0.1199 -0.3123 -0.3420
 4827WAT     H120014   6.176   0.610   6.087  0.0808 -1.1904  0.0682
 4827WAT     H220015   6.062   0.679   6.051  0.8971 -0.1790 -0.6414
 4827WAT    EPW20016   6.102   0.633   6.101 -0.1253  0.1090  0.1875
 4828WAT      O20017   6.357   1.336   4.505  0.0063 -0.1875  0.3805
 4828WAT     H120018   6.296   1.310   4.449 -0.5699 -0.0253  0.9226
 4828WAT     H220019   6.344   1.284   4.575  1.1644 -0.8798  0.1122
 4828WAT    EPW20020   6.346   1.324   4.507 -0.5137  0.7374  0.2216
 4829WAT      O20021   7.250   2.610   3.815  0.3872 -0.5471  0.4231
 4829WAT     H120022   7.192   2.614   3.880 -1.5471  1.1429 -1.2738
 4829WAT     H220023   7.294   2.684   3.823  0.0051 -0.2396 -0.2970
 4829WAT    EPW20024   7.248   2.621   3.826 -0.5283 -0.3885 -0.0410
 4830WAT      O20025   3.023   5.439   3.961 -0.1080  0.0868 -0.6056
 4830WAT     H120026   2.939   5.455   3.982 -0.5683  0.5412 -2.5670
 4830WAT     H220027   3.022   5.439   3.874  2.1170  1.0042 -0.6851
 4830WAT    EPW20028   3.010   5.441   3.951  0.5508 -0.0598  0.0571
 4831WAT      O20029   2.011   6.661   4.365 -0.1191  0.2453  0.1199
 4831WAT     H120030   2.087   6.637   4.401  0.4417 -0.3798 -1.3751
 4831WAT     H220031   1.951   6.634   4.422  0.7068 -0.8275  0.5101
 4831WAT    EPW20032   2.013   6.654   4.379  0.3496 -0.9286 -0.7877
 4832WAT      O20033   2.323   1.924   4.213  0.0190 -0.1125  0.3377
 4832WAT     H120034   2.305   1.929   4.298  0.5031 -0.8694  0.4875
 4832WAT     H220035   2.326   1.838   4.197  0.0995  0.0219 -0.4048
 4832WAT    EPW20036   2.321   1.912   4.223 -0.2098  0.5246 -0.3894
 4833WAT      O20037   3.790   3.137   7.063 -0.0082 -0.0013 -0.0992
 4833WAT     H120038   3.827   3.059   7.075  0.3778  0.2065  0.0538
 4833WAT     H220039   3.706   3.124   7.085  0.1314 -0.2812  0.2612
 4833WAT    EPW20040   3.783   3.124   7.068 -0.6962 -0.0760  0.5673
 4834WAT      O20041   5.448   2.957   2.873  0.0884 -0.0396 -0.0615
 4834WAT     H120042   5.461   2.885   2.825  0.8825 -0.9772  1.4492
 4834WAT     H220043   5.426   3.018   2.815  0.2835 -1.2865 -1.4947
 4834WAT    EPW20044   5.447   2.955   2.857 -0.4227 -0.1020  0.0735
 4835WAT      O20045   0.574   5.991   1.663 -0.7800  0.4152 -0.1451
 4835WAT     H120046   0.506   5.975   1.612 -1.2359  1.3661  0.1421
 4835WAT     H220047   0.622   5.919   1.657 -0.6721  0.6024 -2.1252
 4835WAT    EPW20048   0.571   5.978   1.655  0.1106  0.4830  0.7866
 4836WAT      O20049   5.140   0.239   0.781  0.3763  0.1117 -0.3439
 4836WAT     H120050   5.059   0.223   0.809  0.9005 -0.5456  0.9014
 4836WAT     H220051   5.128   0.274   0.703 -1.0982 -0.4837 -0.4245
 4836WAT    EPW20052   5.126   0.242   0.774  0.2717  0.4360  0.2511
 4837WAT      O20053   7.292   4.233   7.295 -0.8311  0.4913 -0.4496
 4837WAT     H120054   7.314   4.150   7.311 -0.2440  0.7346  0.0446
 4837WAT     H220055   7.272   4.233   7.210  1.1355  0.2641 -0.9427
 4837WAT    EPW20056   7.292   4.221   7.285  0.3422  0.0020 -0.0498
 4838WAT      O20057   1.082   6.188   2.613 -0.0050  0.6335 -0.0377
 4838WAT     H120058   1.092   6.123   2.670  0.2296 -0.3692 -1.1855
 4838WAT     H220059   1.021   6.158   2.558  1.9259  0.2225 -2.1186
 4838WAT    EPW20060   1.074   6.174   2.613  0.2967  0.0219 -0.3123
 4839WAT      O20061   2.863   0.062   5.819 -0.0058  0.3320  0.0341
 4839WAT     H120062   2.852   0.101   5.742 -1.0798 -2.4270 -1.3201
 4839WAT     H220063   2.950   0.060   5.829  0.2101 -0.2166 -1.6615
 4839WAT    EPW20064   2.874   0.068   5.809  0.8139 -0.4197  0.2889
 4840WAT      O20065   1.498   3.691   3.862  0.8179 -0.3501 -0.0493
 4840WAT     H120066   1.572   3.702   3.906  1.2982 -0.6856 -0.7629
 4840WAT     H220067   1.488   3.604   3.859  0.5643 -0.3164 -0.2315
 4840WAT    EPW20068   1.507   3.680   3.868  0.2963  0.4060 -0.1435
 4841WAT      O20069   3.519   7.100   5.596  0.4017 -0.0611  0.4138
 4841WAT     H120070   3.481   7.031   5.558 -1.0140  0.9750 -0.1316
 4841WAT     H220071   3.603   7.076   5.603  0.3723 -0.9983 -1.7229
 4841WAT    EPW20072   3.526   7.086   5.591  0.1098 -0.8940 -0.1499
 4842WAT      O20073   1.525   0.123   0.912  0.1800 -0.2352 -0.5308
 4842WAT     H120074   1.582   0.175   0.872 -0.4535  0.2220 -0.8531
 4842WAT     H220075   1.453   0.130   0.864 -0.7098  0.5729  0.8379
 4842WAT    EPW20076   1.522   0.132   0.899 -0.4946 -0.2019  0.2812
 4843WAT      O20077   7.320   0.974   3.522 -0.1756  0.2359  0.0366
 4843WAT     H120078   7.253   0.941   3.476  0.2881 -0.5986 -0.0689
 4843WAT     H220079   7.305   0.946   3.603 -0.7437  1.3155  0.3157
 4843WAT    EPW20080   7.308   0.965   3.527  0.3242  0.2319  0.4406
 4844WAT      O20081   1.734   2.151   4.599 -0.3517  0.0253  0.0084
 4844WAT     H120082   1.810   2.116   4.621  0.9036  0.3766 -3.2979
 4844WAT     H220083   1.688   2.084   4.569 -0.5736  0.1253  0.1222
 4844WAT    EPW20084   1.738   2.136   4.598  0.3379  0.7243 -0.4038
 4845WAT      O20085   6.317   1.815   2.125 -0.2415  0.7128  0.4661
 4845WAT     H120086   6.234   1.838   2.111 -0.1292  1.6512  1.2410
 4845WAT     H220087   6.360   1.856   2.061 -0.5867 -1.7285 -1.4579
 4845WAT    EPW20088   6.311   1.825   2.113 -0.0298  0.1525  0.0469
 4846WAT      O20089   0.322   3.075   4.576  0.3433 -0.3147 -0.2813
 4846WAT     H120090   0.332   3.134   4.639 -1.5359  0.0377 -0.2602
 4846WAT     H220091   0.241   3.044   4.588  0.0567 -0.5220 -2.2619
 4846WAT    EPW20092   0.311   3.079   4.587 -0.2048 -0.1119  0.2223
 4847WAT      O20093   1.132   2.629   4.514 -0.2072  0.6343 -0.1642
 4847WAT     H120094   1.186   2.576   4.556  0.8210  0.6958 -1.3736
 4847WAT     H220095   1.101   2.581   4.448  0.3090  1.3442 -0.9472
 4847WAT    EPW20096   1.135   2.614   4.511 -0.0944  0.3345 -0.0443
 4848WAT      O20097   0.560   6.621   2.318 -0.7307  0.0648  0.3010
 4848WAT     H120098   0.488   6.574   2.334 -1.8298  1.2316 -0.8671
 4848WAT     H220099   0.569   6.669   2.390 -1.0050 -0.2448  0.5440
 4848WAT    EPW20100   0.550   6.621   2.331  0.0520  0.4018  0.0508
 4849WAT      O20101   2.369   3.638   2.764  0.3072 -0.2061 -0.2860
 4849WAT     H120102   2.455   3.652   2.753  0.3467 -0.4725 -0.3245
 4849WAT     H220103   2.362   3.551   2.758 -0.0554 -0.1395 -0.9022
 4849WAT    EPW20104   2.381   3.627   2.762 -0.1982  0.5703 -0.0763
 4850WAT      O20105   5.421   3.405   5.359  0.0523 -0.2327 -0.2734
 4850WAT     H120106   5.462   3.347   5.409 -0.2655 -0.1713  0.0661
 4850WAT     H220107   5.365   3.443   5.414 -0.0395  0.0975 -0.5917
 4850WAT    EPW20108   5.419   3.402   5.374  0.0199 -0.3703 -0.8406
 4851WAT      O20109   1.531   5.413   2.982 -0.2748  0.3247  0.2513
 4851WAT     H120110   1.500   5.401   3.063 -1.5045 -0.3508 -0.2906
 4851WAT     H220111   1.617   5.419   2.994 -0.5439  2.8616  1.9063
 4851WAT    EPW20112   1.539   5.412   2.996  0.4975 -0.3941  0.1131
 4852WAT      O20113   6.211   6.973   0.415 -0.1056 -1.0452 -0.5073
 4852WAT     H120114   6.187   6.990   0.497 -0.7795  0.8662 -1.0532
 4852WAT     H220115   6.135   6.959   0.374  0.0784 -0.3158 -1.1288
 4852WAT    EPW20116   6.196   6.974   0.421  0.5698  0.2717  0.0051
 4853WAT      O20117   7.474   0.722   6.141 -0.5202  0.7613  0.0618
 4853WAT     H120118   7.486   0.793   6.092 -1.4538  1.8926  1.3661
 4853WAT     H220119   7.399   0.688   6.110  0.5808 -0.4425 -1.4039
 4853WAT    EPW20120   7.464   0.728   6.129 -0.2572  0.0920  0.0744
 4854WAT      O20121   4.212   3.313   5.691 -0.3460 -0.2076  0.1817
 4854WAT     H120122   4.234   3.236   5.727 -0.1563 -0.4896 -0.5205
 4854WAT     H220123   4.246   3.372   5.746  1.5170 -0.6215 -0.4632
 4854WAT    EPW20124   4.220   3.310   5.705  0.3516  0.1116 -0.0289
 4855WAT      O20125   5.778   6.447   2.541 -0.7185  0.1425 -0.2833
 4855WAT     H120126   5.733   6.413   2.607 -0.3332  1.0951  0.4989
 4855WAT     H220127   5.737   6.418   2.470 -1.0193 -1.0713  0.3661
 4855WAT    EPW20128   5.765   6.438   2.540 -0.2096  0.0399 -0.5913
 4856WAT      O20129   7.382   3.591   3.719 -0.4300 -0.1301  0.0546
 4856WAT     H120130   7.340   3.569   3.792 -1.6166 -0.4272 -0.6934
 4856WAT     H220131   7.466   3.592   3.744 -0.8461  0.3306  1.5496
 4856WAT    EPW20132   7.388   3.588   3.733 -0.5303 -0.3310  0.4530
 4857WAT      O20133   1.787   0.395   1.024 -0.5315  0.7321 -0.4466
 4857WAT     H120134   1.700   0.385   1.034 -0.3256  0.7808  2.1021
 4857WAT     H220135   1.815   0.315   1.007 -0.6980 -0.3256  3.2872
 4857WAT    EPW20136   1.778   0.382   1.023  0.1866 -0.1585  0.1395
 4858WAT      O20137   4.494   7.169   6.188  1.6317 -0.0730  0.2838
 4858WAT     H120138   4.544   7.234   6.219  0.3366  1.9049 -1.4912
 4858WAT     H220139   4.473   7.196   6.108 -1.3251 -1.3416  0.5185
 4858WAT    EPW20140   4.498   7.183   6.181  0.6881  0.3071 -0.6208
 4859WAT      O20141   5.909   1.766   7.061 -0.3846 -0.0628 -0.1148
 4859WAT     H120142   5.876   1.809   6.992  0.0348  0.6103  0.0935
 4859WAT     H220143   5.867   1.801   7.129  0.1842  0.2475  0.0837
 4859WAT    EPW20144   5.898   1.778   7.060  0.1158  0.0025  0.1741
 4860WAT      O20145   1.543   5.089   3.100 -0.8096  0.0742  0.0922
 4860WAT     H120146   1.573   5.119   3.177  0.7021 -0.9751 -0.0319
 4860WAT     H220147   1.611   5.044   3.068 -2.3988 -2.1689 -0.4094
 4860WAT    EPW20148   1.558   5.087   3.107 -0.4337 -0.3033  0.2225
 4861WAT      O20149   7.418   5.096   3.566  0.3964  0.5565  0.0336
 4861WAT     H120150   7.383   5.153   3.621  0.2681  0.6442 -0.1366
 4861WAT     H220151   7.352   5.040   3.550 -0.1797  1.5747 -1.4771
 4861WAT    EPW20152   7.403   5.096   3.572 -0.1214  0.0008  0.1835
 4862WAT      O20153   5.615   2.587   1.756  0.4719 -0.0153 -0.0117
 4862WAT     H120154   5.614   2.558   1.674 -0.1539 -2.1196  0.7037
 4862WAT     H220155   5.540   2.630   1.764  0.6297  0.3775 -0.5860
 4862WAT    EPW20156   5.604   2.589   1.745  0.2389  0.2904  0.4484
 4863WAT      O20157   2.826   6.925   6.695  0.3229  0.1889 -0.3768
 4863WAT     H120158   2.899   6.883   6.673  0.5244 -0.4342  1.3354
 4863WAT     H220159   2.854   6.998   6.733  0.2097 -1.0446  2.2931
 4863WAT    EPW20160   2.841   6.929   6.697 -0.2724  0.4356  0.3124
 4864WAT      O20161   6.486   7.551   1.438 -0.0528  0.1491  0.1544
 4864WAT     H120162   6.479   7.518   1.358  0.1633 -0.2806  0.3064
 4864WAT     H220163   6.443   7.627   1.434 -1.9082 -0.8379  0.1945
 4864WAT    EPW20164   6.479   7.557   1.426  0.6865 -0.2178  0.1369
 4865WAT      O20165   6.961   2.131   4.930 -0.0413  0.3208  0.3745
 4865WAT     H120166   6.968   2.194   4.870  0.8048 -0.4995 -0.4184
 4865WAT     H220167   6.884   2.148   4.968 -1.0974  0.3072 -1.6163
 4865WAT    EPW20168   6.951   2.143   4.927  0.4384 -0.2315 -0.2611
 4866WAT      O20169   4.507   5.446   2.462 -0.2566 -0.6666 -0.4790
 4866WAT     H120170   4.531   5.462   2.380  0.1320  1.7111  0.0302
 4866WAT     H220171   4.580   5.418   2.500  0.7407  2.2713 -0.0091
 4866WAT    EPW20172   4.521   5.444   2.455 -0.2480 -0.4867  0.2309
 4867WAT      O20173   5.059   1.453   6.684 -0.0148  0.4177  0.6967
 4867WAT     H120174   5.009   1.477   6.616 -1.1649 -0.9313  1.0225
 4867WAT     H220175   5.007   1.400   6.729  1.7570 -1.1389  0.9991
 4867WAT    EPW20176   5.044   1.449   6.680 -0.1593 -0.3777  0.7199
 4868WAT      O20177   3.282   0.409   5.257 -0.5362  0.5882 -0.1027
 4868WAT     H120178   3.355   0.457   5.251 -0.9250  1.0381 -1.3788
 4868WAT     H220179   3.240   0.445   5.324 -0.0774  0.9931 -0.0274
 4868WAT    EPW20180   3.287   0.421   5.266 -0.1041  0.3109 -0.1904
 4869WAT      O20181   4.381   1.791   4.515  0.8149  0.4272  0.0350
 4869WAT     H120182   4.395   1.800   4.430  0.7257 -0.5403 -0.0846
 4869WAT     H220183   4.295   1.781   4.522  0.8175  0.5269  0.2443
 4869WAT    EPW20184   4.371   1.791   4.504  0.0290 -0.0624  0.7322
 4870WAT      O20185   2.914   6.142   6.223  0.2619  0.5241 -0.2305
 4870WAT     H120186   2.856   6.207   6.238 -0.5982 -0.4762  0.9732
 4870WAT     H220187   2.974   6.153   6.285 -1.1513 -1.1869  1.5755
 4870WAT    EPW20188   2.914   6.153   6.234 -0.2828  0.1577 -0.1145
 4871WAT      O20189   7.552   6.263   2.175  0.4134  0.0637  0.2479
 4871WAT     H120190   7.624   6.263   2.226  0.5134 -1.1181  0.1274
 4871WAT     H220191   7.584   6.253   2.095  0.1678  0.6739  0.0642
 4871WAT    EPW20192   7.568   6.262   2.171  0.4649 -0.3983  0.0428
 4872WAT      O20193   0.684   1.356   6.948 -0.0542  0.5026  0.5106
 4872WAT     H120194   0.698   1.358   7.035 -0.8188  0.1278  0.6516
 4872WAT     H220195   0.745   1.300   6.920  0.3529  0.8045  0.7670
 4872WAT    EPW20196   0.695   1.348   6.957  0.0252 -0.3475  0.3657
 4873WAT      O20197   5.489   0.285   0.585 -0.3220 -0.0463 -0.7281
 4873WAT     H120198   5.574   0.273   0.602 -0.1133  2.5838  0.5342
 4873WAT     H220199   5.481   0.261   0.501  1.6976 -0.1709 -0.9287
 4873WAT    EPW20200   5.501   0.279   0.575 -0.0727 -0.7556  0.4071
 4874WAT      O20201   1.515   1.563   3.113 -0.1055  0.0240 -0.2453
 4874WAT     H120202   1.530   1.480   3.094  3.6404  0.8925 -2.1440
 4874WAT     H220203   1.436   1.578   3.080 -1.1121 -2.8006  0.6052
 4874WAT    EPW20204   1.506   1.553   3.105  0.0707  0.4017  0.5126
 4875WAT      O20205   0.216   6.814   2.826  0.6761  0.5350 -0.7396
 4875WAT     H120206   0.165   6.828   2.756 -2.0200 -0.5351  0.8244
 4875WAT     H220207   0.198   6.882   2.877 -1.6784 -1.2715  1.0656
 4875WAT    EPW20208   0.205   6.826   2.823 -0.8320 -0.2159 -0.0768
 4876WAT      O20209   3.006   2.849   7.506 -0.0096  0.4583 -0.1697
 4876WAT     H120210   3.036   2.824   7.584  0.2461 -0.4492 -0.5436
 4876WAT     H220211   2.922   2.822   7.507  0.1527 -0.0828 -0.4149
 4876WAT    EPW20212   2.998   2.841   7.517 -0.0852  0.2191  0.1111
 4877WAT      O20213   0.199   1.573   5.996 -0.0825 -0.3542  0.1975
 4877WAT     H120214   0.136   1.575   6.056 -0.1459  0.0330  0.1209
 4877WAT     H220215   0.182   1.642   5.946  0.4781 -0.1647  0.2533
 4877WAT    EPW20216   0.187   1.583   5.998 -0.4266 -0.6566  0.1322
 4878WAT      O20217   6.421   1.216   3.442  0.0073 -0.2291  0.0688
 4878WAT     H120218   6.459   1.150   3.399 -0.6088  0.4471 -1.6189
 4878WAT     H220219   6.343   1.184   3.465  0.6406 -0.8535  1.4595
 4878WAT    EPW20220   6.415   1.202   3.439 -0.0026 -0.1931  0.0292
 4879WAT      O20221   0.210   6.461   1.823 -0.0413 -0.4043  0.1317
 4879WAT     H120222   0.149   6.399   1.814  0.4931 -0.8047 -0.8721
 4879WAT     H220223   0.205   6.482   1.908 -2.6973  0.7278 -0.2051
 4879WAT    EPW20224   0.200   6.455   1.834 -0.1917 -0.4170 -0.0158
 4880WAT      O20225   3.603   0.630   4.811  0.4946 -0.1528  0.1303
 4880WAT     H120226   3.598   0.717   4.812  0.1440 -0.1105 -1.7328
 4880WAT     H220227   3.523   0.605   4.836  0.5504  0.0521  0.5254
 4880WAT    EPW20228   3.591   0.639   4.815  0.4659 -0.1321  0.4209
 4881WAT      O20229   1.449   0.668   0.751  0.2072  0.5103  0.0634
 4881WAT     H120230   1.421   0.586   0.751  0.2833  0.4844  0.1912
 4881WAT     H220231   1.413   0.702   0.679  1.0007  0.0880 -0.5594
 4881WAT    EPW20232   1.440   0.661   0.740 -0.5624  0.5008  0.1111
 4882WAT      O20233   1.313   5.371   0.781  0.1548  0.9559 -0.1487
 4882WAT     H120234   1.400   5.360   0.789  0.1509  0.8508 -0.2390
 4882WAT     H220235   1.290   5.306   0.727  0.0629  1.1646 -0.3608
 4882WAT    EPW20236   1.323   5.360   0.774 -0.8175 -0.5452 -0.7330
 4883WAT      O20237   6.075   0.006   2.145 -0.5124  0.0214  0.1150
 4883WAT     H120238   6.138   0.037   2.093 -0.4615 -0.7780 -0.3192
 4883WAT     H220239   6.008  -0.008   2.091 -0.5155 -0.6594  0.2856
 4883WAT    EPW20240   6.075   0.009   2.130 -0.1382  0.5728 -0.5347
 4884WAT      O20241   0.364   6.863   4.794  0.4560 -0.3638  0.3544
 4884WAT     H120242   0.291   6.858   4.747  1.8326 -0.7909 -1.8634
 4884WAT     H220243   0.338   6.839   4.874 -1.9965  0.4909 -0.0974
 4884WAT    EPW20244   0.349   6.859   4.799  0.3691  0.4326  1.0095
 4885WAT      O20245   3.106   6.961   0.038  0.3556  0.2850 -0.1475
 4885WAT     H120246   3.165   6.989  -0.019  0.8905  0.9170  0.6811
 4885WAT     H220247   3.151   6.957   0.113  0.1455 -2.2548 -0.0814
 4885WAT    EPW20248   3.121   6.965   0.041 -0.5456 -0.6776 -0.6465
 4886WAT      O20249   7.123   6.784   3.145 -0.0333 -0.2108 -0.6226
 4886WAT     H120250   7.131   6.865   3.113 -0.6423 -0.7753 -2.2460
 4886WAT     H220251   7.200   6.747   3.125  0.3020 -0.0200  0.2491
 4886WAT    EPW20252   7.136   6.790   3.138  0.3964 -0.0008  0.7224
 4887WAT      O20253   5.218   1.594   5.827 -0.1887  0.5323  0.3785
 4887WAT     H120254   5.143   1.633   5.806  0.0848  1.2547  0.7220
 4887WAT     H220255   5.205   1.511   5.802 -1.4643  0.4131  1.3075
 4887WAT    EPW20256   5.205   1.588   5.820 -0.2349  0.6635  0.5070
 4888WAT      O20257   1.550   6.146   2.816  0.6587 -0.5737  0.2545
 4888WAT     H120258   1.493   6.191   2.768  0.6772  0.2794  1.0128
 4888WAT     H220259   1.521   6.063   2.810 -1.5561  0.0069  1.8229
 4888WAT    EPW20260   1.538   6.140   2.808 -0.1677  0.2370  0.2820
 4889WAT      O20261   6.737   5.994   0.395  0.7741  0.0138  0.2510
 4889WAT     H120262   6.654   6.019   0.401  1.5543  3.3530 -0.9365
 4889WAT     H220263   6.743   5.964   0.313  0.8312  0.2073  0.1838
 4889WAT    EPW20264   6.726   5.993   0.384  0.2378 -0.4136  0.7009
 4890WAT      O20265   7.291   3.360   4.593 -0.1806 -0.0196 -0.0904
 4890WAT     H120266   7.308   3.432   4.548 -1.1977  0.0922 -0.3272
 4890WAT     H220267   7.370   3.331   4.617  0.3201  0.4321 -1.1289
 4890WAT    EPW20268   7.305   3.366   4.590 -0.1038 -0.4030  0.1080
 4891WAT      O20269   3.390   2.677   6.148  0.0089  0.0129 -0.4983
 4891WAT     H120270   3.322   2.718   6.184 -0.8135  0.7103 -2.6755
 4891WAT     H220271   3.451   2.738   6.145 -0.3450  0.3362 -1.3818
 4891WAT    EPW20272   3.389   2.692   6.153 -0.6586 -0.1981 -0.5176
 4892WAT      O20273   6.125   5.180   3.772 -0.4422  0.5848  0.3430
 4892WAT     H120274   6.093   5.177   3.690  0.0327  2.2377  0.0482
 4892WAT     H220275   6.124   5.097   3.798 -1.5408  0.1475 -0.9838
 4892WAT    EPW20276   6.120   5.167   3.763 -0.0092 -0.2003 -0.2646
 4893WAT      O20277   0.585   3.364   4.645 -0.4476 -0.2802  0.5071
 4893WAT     H120278   0.584   3.331   4.564  3.2012  1.4988 -0.4547
 4893WAT     H220279   0.525   3.427   4.642 -1.7835 -1.5255 -0.1051
 4893WAT    EPW20280   0.576   3.368   4.632  0.0137  0.7026  0.5897
 4894WAT      O20281   7.327   1.879   4.426  0.5996  0.3913  0.0955
 4894WAT     H120282   7.266   1.919   4.473  0.3684  1.3779 -0.9731
 4894WAT     H220283   7.359   1.943   4.376  0.5788 -0.6521 -1.3235
 4894WAT    EPW20284   7.323   1.894   4.425 -0.0498  0.2243 -0.0714
 4895WAT      O20285   4.988   5.358   0.171 -0.0073 -0.1659 -0.6636
 4895WAT     H120286   5.019   5.431   0.135 -1.0034 -0.4243 -2.1430
 4895WAT     H220287   5.043   5.297   0.143 -0.5385 -0.3044 -1.4430
 4895WAT    EPW20288   5.001   5.360   0.162  0.0408  0.4990  0.2626
 4896WAT      O20289   0.787   2.820   4.157 -0.3371  0.2047  0.1390
 4896WAT     H120290   0.793   2.828   4.243 -0.1532 -1.0379  0.2504
 4896WAT     H220291   0.865   2.788   4.134 -0.4596  0.3275 -0.4636
 4896WAT    EPW20292   0.799   2.817   4.166  0.1412 -0.2491 -0.0436
 4897WAT      O20293   1.013   2.262   6.444  0.0946  0.2905 -0.3054
 4897WAT     H120294   1.060   2.207   6.492 -1.1758  0.6155  1.3675
 4897WAT     H220295   0.966   2.209   6.392  1.2153 -0.0642 -1.0041
 4897WAT    EPW20296   1.013   2.246   6.443  0.5164 -0.4760 -0.4434
 4898WAT      O20297   4.184   1.898   5.719 -0.1513 -0.1012  0.0500
 4898WAT     H120298   4.138   1.922   5.790  1.4996 -1.3138  1.6124
 4898WAT     H220299   4.257   1.864   5.753  1.5355  0.9470 -2.3134
 4898WAT    EPW20300   4.188   1.896   5.735  0.1190  0.2273  0.0133
 4899WAT      O20301   5.233   6.105   5.394 -0.0475  0.2758  0.2073
 4899WAT     H120302   5.273   6.056   5.454 -0.5423 -2.2813 -1.3755
 4899WAT     H220303   5.292   6.113   5.331 -1.3342 -2.3094 -1.5157
 4899WAT    EPW20304   5.247   6.099   5.394 -0.5929  0.0176 -0.2079
 4900WAT      O20305   0.924   0.593   4.220 -0.6587  0.0134  0.2400
 4900WAT     H120306   0.903   0.515   4.188  1.2383 -0.4023 -0.1148
 4900WAT     H220307   0.906   0.648   4.154 -0.3115 -0.3624 -0.1740
 4900WAT    EPW20308   0.919   0.590   4.206  0.2706  0.0499 -0.3248
 4901WAT      O20309   5.069   5.775   2.689  0.0324  0.0233  0.1160
 4901WAT     H120310   5.123   5.722   2.733 -0.2888  0.0386  0.5391
 4901WAT     H220311   5.024   5.815   2.753  0.7451  1.3155 -0.1541
 4901WAT    EPW20312   5.071   5.773   2.705  0.0351 -0.1993  0.2001
 4902WAT      O20313   6.163   7.548   6.719 -0.4606 -0.3815  0.5288
 4902WAT     H120314   6.096   7.497   6.696 -1.7944 -0.0487  3.2488
 4902WAT     H220315   6.214   7.496   6.767  0.8991 -0.4310 -0.9133
 4902WAT    EPW20316   6.160   7.533   6.723  0.0532  0.3154  0.1645
 4903WAT      O20317   3.093   5.665   0.138 -0.4254  0.0813 -0.4020
 4903WAT     H120318   3.172   5.658   0.172 -0.3857 -0.8755 -0.6746
 4903WAT     H220319   3.107   5.701   0.060 -0.2185 -0.3842 -0.5830
 4903WAT    EPW20320   3.106   5.669   0.131  0.0779 -0.5287 -0.0886
 4904WAT      O20321   7.263   0.800   6.747 -0.3648 -0.1024  0.2762
 4904WAT     H120322   7.269   0.852   6.678 -0.5575 -0.7983 -0.2689
 4904WAT     H220323   7.297   0.724   6.719 -1.5438 -0.7591  0.5577
 4904WAT    EPW20324   7.269   0.796   6.733 -0.0535 -0.3668  0.4460
 4905WAT      O20325   5.652   7.070   6.537  0.9086 -0.6187  0.3507
 4905WAT     H120326   5.658   7.139   6.590 -0.8908  2.6336 -3.2454
 4905WAT     H220327   5.572   7.038   6.554  1.4636 -1.4698  1.5063
 4905WAT    EPW20328   5.641   7.075   6.548 -0.2166  0.4046  0.8890
 4906WAT      O20329   3.419   2.464   7.203  0.1930 -0.2888  0.2955
 4906WAT     H120330   3.484   2.517   7.180 -0.7570  1.2983  1.0929
 4906WAT     H220331   3.384   2.440   7.126  2.1330 -1.8299 -0.1891
 4906WAT    EPW20332   3.423   2.468   7.188  0.1848 -0.2104  0.7610
 4907WAT      O20333   7.183   3.039   2.563 -0.0566  0.0998 -0.2161
 4907WAT     H120334   7.266   3.061   2.580  0.3156 -0.4988 -1.2111
 4907WAT     H220335   7.147   3.032   2.642  1.4619 -2.0342  0.3586
 4907WAT    EPW20336   7.190   3.041   2.577  0.4254 -0.1659  1.0967
 4908WAT      O20337   0.892   4.844   3.322  0.2976 -0.1713  0.2825
 4908WAT     H120338   0.814   4.877   3.344 -0.9922 -1.7453 -1.6657
 4908WAT     H220339   0.885   4.760   3.341  2.0129 -0.1506  1.2042
 4908WAT    EPW20340   0.879   4.837   3.328 -0.2570  0.2574 -0.9708
 4909WAT      O20341   6.950   0.998   4.285 -0.0193  0.0538  0.3679
 4909WAT     H120342   6.943   0.979   4.370  1.8777 -1.1786  0.3121
 4909WAT     H220343   7.005   0.937   4.255  0.6733  1.4589 -1.4030
 4909WAT    EPW20344   6.957   0.986   4.293  0.2402  0.5358  0.0979
 4910WAT      O20345   5.664   6.808   2.100 -0.3580  0.0225  0.0042
 4910WAT     H120346   5.740   6.850   2.088  0.0009 -0.8183 -0.8055
 4910WAT     H220347   5.660   6.754   2.032 -1.2457 -0.6183  0.5477
 4910WAT    EPW20348   5.674   6.806   2.088 -0.2393 -0.2316  0.0335
 4911WAT      O20349   4.266   0.969   6.241 -0.4907 -0.0994  0.3177
 4911WAT     H120350   4.293   0.940   6.163 -0.9350 -0.6401  0.3613
 4911WAT     H220351   4.179   0.968   6.235 -0.5677  2.2464 -0.0417
 4911WAT    EPW20352   4.257   0.965   6.229  0.6092 -0.1413  0.2031
 4912WAT      O20353   0.810   0.951   0.569 -0.8621 -0.0863  0.1970
 4912WAT     H120354   0.790   0.999   0.640 -1.7841  0.4137 -0.3816
 4912WAT     H220355   0.878   0.994   0.535 -1.8947  1.0587 -0.5056
 4912WAT    EPW20356   0.817   0.965   0.574  0.4402 -0.0475 -0.7612
 4913WAT      O20357   0.713   1.630   4.728 -0.4557 -0.0100 -0.2547
 4913WAT     H120358   0.688   1.680   4.661 -0.6223  0.5843  0.2455
 4913WAT     H220359   0.764   1.683   4.775 -0.1643 -0.4895 -0.0189
 4913WAT    EPW20360   0.717   1.645   4.725  0.3698 -0.0028 -0.7789
 4914WAT      O20361   6.380   6.647   3.909  0.5734 -0.2010 -0.6123
 4914WAT     H120362   6.425   6.602   3.969  0.6160 -0.2265 -0.6641
 4914WAT     H220363   6.347   6.584   3.858 -0.6481 -0.2795  0.2202
 4914WAT    EPW20364   6.381   6.631   3.910  0.4501 -0.5117 -0.4125
 4915WAT      O20365   4.907   2.179   0.271 -0.0999 -0.2151  0.6260
 4915WAT     H120366   4.828   2.172   0.307  0.1199 -1.3087  0.9476
 4915WAT     H220367   4.892   2.213   0.192 -0.9451 -0.9087  0.4789
 4915WAT    EPW20368   4.893   2.183   0.265  0.0963 -0.7841 -0.2109
 4916WAT      O20369   2.703   1.865   0.504  0.2040 -0.4105  0.7064
 4916WAT     H120370   2.754   1.843   0.571  1.2048  1.3512  0.5720
 4916WAT     H220371   2.754   1.914   0.453 -0.8707 -0.7405 -0.7736
 4916WAT    EPW20372   2.718   1.869   0.506 -0.1497 -0.7025 -0.3468
 4917WAT      O20373   7.334   4.002   3.762  0.0527 -0.5244  0.1820
 4917WAT     H120374   7.305   4.004   3.844  0.8144 -2.1336  0.5393
 4917WAT     H220375   7.288   3.937   3.726  1.4498 -1.5021  0.0747
 4917WAT    EPW20376   7.323   3.993   3.769 -0.4244 -0.5917 -0.1248
 4918WAT      O20377   6.205   2.659   2.726 -0.2163 -0.1341 -0.0439
 4918WAT     H120378   6.283   2.651   2.688  0.2997  1.3514  0.6165
 4918WAT     H220379   6.164   2.718   2.676 -1.6014 -2.0899 -1.3602
 4918WAT    EPW20380   6.210   2.667   2.713 -0.0717  0.2360 -0.1493
 4919WAT      O20381   2.436   5.093   7.342  0.2886  0.1170 -0.1333
 4919WAT     H120382   2.366   5.048   7.317 -0.0271  0.0177  0.8765
 4919WAT     H220383   2.475   5.041   7.401  0.6024  0.6254  0.1263
 4919WAT    EPW20384   2.432   5.079   7.347  0.5890 -0.5329  0.3386
 4920WAT      O20385   0.365   2.060   3.868  0.7462  0.5718 -0.0483
 4920WAT     H120386   0.349   2.136   3.909 -0.5957 -0.1219  0.7693
 4920WAT     H220387   0.378   2.004   3.933 -4.0373 -1.1696 -0.2053
 4920WAT    EPW20388   0.365   2.063   3.884 -0.1227 -0.5175 -0.0808
 4921WAT      O20389   4.496   0.262   0.068  0.0183  0.0290  0.4144
 4921WAT     H120390   4.448   0.223   0.006 -0.0743  0.4098  0.2436
 4921WAT     H220391   4.454   0.244   0.142 -0.0404 -0.1676  0.3328
 4921WAT    EPW20392   4.483   0.254   0.070 -0.2428  0.4613  0.1175
 4922WAT      O20393   5.948   2.134   7.202 -0.1820 -0.3191 -0.6263
 4922WAT     H120394   5.908   2.062   7.231 -3.3565  0.9932 -1.2413
 4922WAT     H220395   5.930   2.193   7.265 -0.5244  0.6810 -1.6238
 4922WAT    EPW20396   5.939   2.132   7.216 -0.0022 -0.2520  0.3236
 4923WAT      O20397   6.535   0.527   0.983 -0.0360  0.0786 -0.1157
 4923WAT     H120398   6.506   0.587   1.039  2.1318  1.5633 -0.4420
 4923WAT     H220399   6.614   0.506   1.015  1.1402  0.7620 -2.3520
 4923WAT    EPW20400   6.542   0.533   0.996 -0.3140  0.0937  0.4794
 4924WAT      O20401   4.333   5.148   7.392 -0.2534  0.1557 -0.4086
 4924WAT     H120402   4.371   5.131   7.316  0.8229  0.9260 -0.0601
 4924WAT     H220403   4.392   5.194   7.435 -1.3740  0.9227  0.3729
 4924WAT    EPW20404   4.347   5.152   7.387 -0.1894 -0.2451  0.0977
 4925WAT      O20405   2.701   5.186   7.313  0.1655 -0.3467 -0.4730
 4925WAT     H120406   2.621   5.171   7.343  0.5222 -1.1143  0.1267
 4925WAT     H220407   2.698   5.154   7.231 -0.6774  1.3701 -1.1695
 4925WAT    EPW20408   2.689   5.179   7.305 -0.3541 -0.1148 -0.1903
 4926WAT      O20409   7.511   2.043   1.148  0.2936 -0.5285  0.3787
 4926WAT     H120410   7.514   2.057   1.234  1.3099  1.4483  0.0801
 4926WAT     H220411   7.441   2.087   1.122  0.3972 -0.5223  0.1049
 4926WAT    EPW20412   7.501   2.052   1.157 -0.4177  0.3510 -0.2317
 4927WAT      O20413   2.034   4.620   6.233  0.0635 -0.1919  0.4260
 4927WAT     H120414   2.049   4.696   6.272 -1.4672  0.3825 -0.0073
 4927WAT     H220415   2.086   4.622   6.163 -0.7355  0.9620 -0.1652
 4927WAT    EPW20416   2.044   4.631   6.229  0.4772 -0.3187 -0.7107
 4928WAT      O20417   3.320   4.691   5.343 -0.3197  0.3614 -0.3932
 4928WAT     H120418   3.298   4.768   5.309 -0.1374 -0.0723 -1.5367
 4928WAT     H220419   3.253   4.640   5.322  0.0682 -0.0564 -0.6307
 4928WAT    EPW20420   3.307   4.695   5.335 -0.2954  0.2558 -0.0441
 4929WAT      O20421   0.753   4.312   4.367 -0.2070 -0.0189 -0.6211
 4929WAT     H120422   0.816   4.287   4.423  0.1493  1.6129 -0.2572
 4929WAT     H220423   0.693   4.248   4.375 -0.5883  0.5480  2.3307
 4929WAT    EPW20424   0.753   4.299   4.377 -0.0784 -0.9510  0.3160
 4930WAT      O20425   2.179   2.446   1.469  0.1980 -0.5442  0.0344
 4930WAT     H120426   2.199   2.508   1.526  1.0669 -0.4422 -0.3712
 4930WAT     H220427   2.250   2.395   1.467 -0.4858 -1.5446  0.3388
 4930WAT    EPW20428   2.192   2.448   1.477 -0.4377  0.0273  0.7694
 4931WAT      O20429   2.008   5.463   6.473  0.0215 -0.1731 -0.4346
 4931WAT     H120430   1.945   5.521   6.490 -0.1650 -0.3796 -0.4270
 4931WAT     H220431   2.059   5.467   6.544  2.3195  2.9332 -1.9933
 4931WAT    EPW20432   2.006   5.472   6.486  0.0984 -0.0283  0.2323
 4932WAT      O20433   3.211   0.505   3.971  0.0076  0.3721  0.5898
 4932WAT     H120434   3.205   0.529   3.888  0.7049 -0.7235  0.2067
 4932WAT     H220435   3.171   0.570   4.014  0.0762  1.1941 -0.5468
 4932WAT    EPW20436   3.204   0.518   3.965 -0.2091 -0.1634  0.0224
 4933WAT      O20437   6.208   0.908   4.363 -0.1844  0.1107 -0.0687
 4933WAT     H120438   6.144   0.878   4.311  0.0357  0.6303 -0.6625
 4933WAT     H220439   6.190   0.874   4.441 -0.1629 -1.2370 -0.6284
 4933WAT    EPW20440   6.196   0.899   4.367 -0.3712  0.2162 -0.1963
 4934WAT      O20441   2.876   1.503   4.476 -0.2416  0.1213 -0.6538
 4934WAT     H120442   2.789   1.505   4.472 -0.4349  0.6422  2.0800
 4934WAT     H220443   2.894   1.418   4.480 -0.7445  0.0460  0.1914
 4934WAT    EPW20444   2.866   1.491   4.476  0.2600  0.0903  0.5950
 4935WAT      O20445   0.364   4.288   5.772 -0.1078 -0.3855 -0.0848
 4935WAT     H120446   0.300   4.346   5.757 -0.7315 -1.4780 -2.0500
 4935WAT     H220447   0.414   4.328   5.831 -0.5213  2.1703 -1.2867
 4935WAT    EPW20448   0.362   4.303   5.778 -0.0611 -0.0497 -0.6640
 4936WAT      O20449   6.601   5.057   1.526 -0.3703  0.4714  0.0386
 4936WAT     H120450   6.591   4.982   1.569  2.5416  0.7649  1.4747
 4936WAT     H220451   6.563   5.116   1.577  0.4911  0.4192  0.7602
 4936WAT    EPW20452   6.594   5.055   1.540  0.0193 -0.8346  0.2675
 4937WAT      O20453   6.936   7.245   0.635  0.0054  0.3458  0.1400
 4937WAT     H120454   7.010   7.289   0.622  0.2378  0.8423  2.6515
 4937WAT     H220455   6.963   7.166   0.660 -0.3014  0.4669  0.8760
 4937WAT    EPW20456   6.951   7.239   0.637  0.0736 -0.3711  1.0309
 4938WAT      O20457   5.910   3.521   2.888 -0.1908  0.3748 -0.2814
 4938WAT     H120458   5.980   3.532   2.838  0.4358 -0.3682  0.4134
 4938WAT     H220459   5.935   3.462   2.947 -2.0852 -1.6608 -1.3883
 4938WAT    EPW20460   5.924   3.514   2.889  0.1595  0.0806 -0.1120
 4939WAT      O20461   5.299   5.024   3.121  0.2098 -0.1197  0.6322
 4939WAT     H120462   5.383   5.031   3.144  0.1375 -0.5906  1.0541
 4939WAT     H220463   5.294   4.945   3.083  0.0937  0.1877 -0.0139
 4939WAT    EPW20464   5.310   5.013   3.119 -0.2476 -0.1761 -0.0558
 4940WAT      O20465   6.321   3.766   1.283  0.1582 -0.3357  0.1563
 4940WAT     H120466   6.301   3.778   1.367 -1.2659 -1.1041 -0.0496
 4940WAT     H220467   6.262   3.814   1.240  1.0509  0.2904 -0.4330
 4940WAT    EPW20468   6.309   3.775   1.289 -0.2804 -0.2177  0.5491
 4941WAT      O20469   5.983   3.881   3.490  0.2912  0.2481  0.0339
 4941WAT     H120470   6.049   3.844   3.534  0.1151  1.2873  1.1862
 4941WAT     H220471   5.988   3.842   3.411  1.7976 -0.2416  0.3370
 4941WAT    EPW20472   5.994   3.870   3.485  0.2466  0.4273 -0.1554
 4942WAT      O20473   2.074   1.204   2.262  0.7724 -0.0931  0.2112
 4942WAT     H120474   2.146   1.246   2.238  0.7277 -0.5798 -0.8056
 4942WAT     H220475   2.057   1.151   2.195 -1.5339  1.2479 -0.3697
 4942WAT    EPW20476   2.082   1.202   2.249  0.2908  0.3024 -0.1277
 4943WAT      O20477   2.038   0.094   5.787 -0.2854  0.0364  0.2356
 4943WAT     H120478   1.956   0.066   5.773 -0.7080  0.2533  2.0234
 4943WAT     H220479   2.027   0.169   5.829  0.6395 -1.7748  4.2541
 4943WAT    EPW20480   2.024   0.101   5.791 -0.1887  0.0785  0.0695
 4944WAT      O20481   1.245   3.809   3.960  0.0133  0.8848 -0.0104
 4944WAT     H120482   1.317   3.772   3.928 -1.4844 -0.4638 -2.0221
 4944WAT     H220483   1.227   3.872   3.903  0.0721  1.8210  0.9771
 4944WAT    EPW20484   1.253   3.813   3.947 -0.0155 -0.2900  0.1230
 4945WAT      O20485   0.929   4.130   3.328  0.5815  0.4072 -0.9213
 4945WAT     H120486   0.989   4.138   3.265  0.4177 -0.2686 -1.1747
 4945WAT     H220487   0.916   4.044   3.332  1.2872  0.3337  0.6954
 4945WAT    EPW20488   0.936   4.118   3.319 -0.0585  0.9348  0.4006
 4946WAT      O20489   3.887   1.646   2.502  0.1938 -0.4345 -0.1038
 4946WAT     H120490   3.874   1.575   2.552 -0.9518 -0.3064 -0.2000
 4946WAT     H220491   3.825   1.701   2.528  0.4186  0.1408 -0.7576
 4946WAT    EPW20492   3.876   1.644   2.513 -0.2484  0.0087 -0.1156
 4947WAT      O20493   0.502   2.476   2.951  0.3449 -0.4227  0.2926
 4947WAT     H120494   0.499   2.397   2.989  2.0547 -0.5989  0.1810
 4947WAT     H220495   0.463   2.462   2.874 -0.2725 -0.8927  0.6764
 4947WAT    EPW20496   0.496   2.462   2.945  0.6316  0.4314 -0.2295
 4948WAT      O20497   5.077   0.172   7.423 -0.0091 -0.3367 -0.1095
 4948WAT     H120498   4.997   0.145   7.445  0.5424 -2.4069 -0.4020
 4948WAT     H220499   5.122   0.167   7.497 -0.1072  0.8197  0.0533
 4948WAT    EPW20500   5.071   0.167   7.437  0.2286  0.0690  0.0207
 4949WAT      O20501   6.168   1.686   0.485  0.0217  0.2980  0.3511
 4949WAT     H120502   6.212   1.751   0.446 -1.2152  1.6929  1.1374
 4949WAT     H220503   6.230   1.640   0.525  0.8642  1.6017  0.6084
 4949WAT    EPW20504   6.183   1.689   0.485  0.4674  0.0108  0.0653
 4950WAT      O20505   5.607   0.068   3.124 -0.1978  0.0047  1.0202
 4950WAT     H120506   5.644   0.007   3.174 -1.8631 -2.2338 -0.2553
 4950WAT     H220507   5.564   0.021   3.065  1.3458  2.4507 -2.3492
 4950WAT    EPW20508   5.606   0.052   3.123  0.6355 -0.9753 -0.0618
 4951WAT      O20509   4.101   2.729   0.045 -0.6139  0.4024  0.1584
 4951WAT     H120510   4.086   2.760  -0.035 -1.7774 -2.0186 -0.6904
 4951WAT     H220511   4.187   2.733   0.054 -0.3853  0.0614 -1.5658
 4951WAT    EPW20512   4.112   2.734   0.034  0.1432  0.0260  0.2439
 4952WAT      O20513   5.611   2.045   4.954  0.1362  0.1093 -0.4627
 4952WAT     H120514   5.629   2.130   4.946 -0.5969  0.6889  2.6053
 4952WAT     H220515   5.685   2.005   4.930  0.8081  1.6683 -1.0818
 4952WAT    EPW20516   5.625   2.051   4.949  0.2142  0.0799  0.3236
 4953WAT      O20517   2.493   4.928   1.784  0.5889  0.4738 -0.4304
 4953WAT     H120518   2.551   4.915   1.720  0.8559 -1.2756  0.1251
 4953WAT     H220519   2.529   4.994   1.830  1.5537  0.2133 -0.7739
 4953WAT    EPW20520   2.507   4.936   1.781  0.2052 -0.8341  0.4844
 4954WAT      O20521   6.395   3.042   3.154 -0.6219  0.0669  0.1661
 4954WAT     H120522   6.407   2.979   3.213 -1.0739 -0.3901 -0.2193
 4954WAT     H220523   6.441   3.015   3.085 -0.8443  0.1349 -0.0121
 4954WAT    EPW20524   6.404   3.028   3.153  0.3637 -0.0849 -0.4680
 4955WAT      O20525   5.790   6.983   4.013 -0.2779  0.3666 -0.5081
 4955WAT     H120526   5.738   7.053   4.019  0.1755  0.7169 -0.5885
 4955WAT     H220527   5.821   6.987   3.931  0.1772  0.3826 -0.3385
 4955WAT    EPW20528   5.787   6.994   4.002  0.0325 -0.3232 -0.5155
 4956WAT      O20529   4.214   2.910   6.035 -0.3804  0.3956 -0.1637
 4956WAT     H120530   4.156   2.955   6.082  0.1333  0.4439  0.4294
 4956WAT     H220531   4.288   2.918   6.080 -0.3912 -1.5529  0.3073
 4956WAT    EPW20532   4.216   2.918   6.049  0.3885  0.0152  0.3886
 4957WAT      O20533   1.383   7.479   3.621  0.1947  0.3437  0.0347
 4957WAT     H120534   1.447   7.421   3.614 -0.2745 -0.5247  2.1704
 4957WAT     H220535   1.421   7.549   3.656 -0.0565 -0.4061  1.9444
 4957WAT    EPW20536   1.398   7.481   3.625 -0.0034  0.5261 -0.1294
 4958WAT      O20537   4.460   6.076   5.260 -0.0373 -0.4061 -0.5866
 4958WAT     H120538   4.493   6.156   5.247 -1.8070  0.8319  1.7027
 4958WAT     H220539   4.529   6.023   5.252  0.9997  1.1500 -3.3367
 4958WAT    EPW20540   4.475   6.080   5.257 -0.0925  0.0654  0.2716
 4959WAT      O20541   3.944   4.087   2.624 -1.3108  0.2974  0.2645
 4959WAT     H120542   3.952   4.129   2.700 -1.8282  1.3114 -0.2223
 4959WAT     H220543   3.876   4.034   2.637 -0.0838 -1.1015  1.1849
 4959WAT    EPW20544   3.935   4.086   2.637 -0.1364 -0.3705  0.3427
 4960WAT      O20545   0.901   6.924   7.244  0.0639  0.0845  0.0760
 4960WAT     H120546   0.932   6.877   7.178  0.1679 -1.6258  1.2596
 4960WAT     H220547   0.911   6.871   7.313  0.7149  2.0717  1.6153
 4960WAT    EPW20548   0.907   6.910   7.245 -0.0443  0.4463 -0.2853
 4961WAT      O20549   0.565   1.927   6.499  0.0656 -0.4859 -0.4766
 4961WAT     H120550   0.499   1.982   6.483  1.3978  1.1709 -0.6162
 4961WAT     H220551   0.561   1.871   6.433 -0.5042  0.2893 -1.1242
 4961WAT    EPW20552   0.555   1.927   6.487 -0.0239 -0.3311 -0.0770
 4962WAT      O20553   5.788   4.227   6.563 -0.4942 -0.5456  0.1948
 4962WAT     H120554   5.855   4.274   6.592 -1.3576  1.0033 -0.2273
 4962WAT     H220555   5.786   4.244   6.478 -1.1364 -0.9639  0.1192
 4962WAT    EPW20556   5.798   4.236   6.555  0.5934  0.0749  0.2609
 4963WAT      O20557   2.678   6.398   2.673 -0.1692 -0.3034 -0.0811
 4963WAT     H120558   2.722   6.436   2.608  1.2838 -1.2111  0.3218
 4963WAT     H220559   2.604   6.371   2.635 -0.9652  2.2616 -0.5253
 4963WAT    EPW20560   2.673   6.400   2.658 -0.6134 -0.3479 -0.2856
 4964WAT      O20561   5.657   2.881   4.531  0.1146 -0.0559  0.3188
 4964WAT     H120562   5.699   2.925   4.594  1.0574 -1.1264  0.4663
 4964WAT     H220563   5.573   2.895   4.549  0.3119  2.8496 -0.4669
 4964WAT    EPW20564   5.651   2.889   4.543  0.1004  0.0198  0.1245
 4965WAT      O20565   1.528   6.542   1.100  0.3933 -0.4804 -0.8375
 4965WAT     H120566   1.457   6.503   1.130  0.0058 -1.1832 -2.5403
 4965WAT     H220567   1.514   6.547   1.014  1.7781  0.6626 -1.0384
 4965WAT    EPW20568   1.516   6.537   1.092 -0.3892 -0.2177  0.3244
 4966WAT      O20569   5.323   3.219   7.550  0.5742 -0.2093  0.6508
 4966WAT     H120570   5.252   3.226   7.600 -0.2991 -1.3939 -0.3773
 4966WAT     H220571   5.389   3.226   7.606 -0.2886  2.1584  1.4877
 4966WAT    EPW20572   5.322   3.221   7.565  0.1300  0.2449  0.2284
 4967WAT      O20573   6.071   1.278   6.713 -0.6158 -0.0839  0.3349
 4967WAT     H120574   6.076   1.254   6.796 -0.0473 -0.0673  0.3139
 4967WAT     H220575   6.024   1.215   6.676 -1.7590  0.4481  0.8579
 4967WAT    EPW20576   6.065   1.265   6.720  0.5789  0.3101 -0.1687
 4968WAT      O20577   5.767   3.023   5.444  0.6523  0.1294  0.1773
 4968WAT     H120578   5.825   2.958   5.449  1.3252  0.7580  0.7772
 4968WAT     H220579   5.701   2.995   5.495  0.7868 -0.2266  0.1607
 4968WAT    EPW20580   5.765   3.009   5.453  0.1928 -0.0020  0.1490
 4969WAT      O20581   7.426   6.908   1.322  0.0914 -0.0530 -0.5683
 4969WAT     H120582   7.378   6.860   1.377 -1.5606  0.8785 -1.1159
 4969WAT     H220583   7.428   6.860   1.249  0.0130 -0.1055 -0.5354
 4969WAT    EPW20584   7.419   6.894   1.319 -0.1137  0.3344 -0.5438
 4970WAT      O20585   1.195   1.805   0.467 -0.4565  0.1869 -0.3172
 4970WAT     H120586   1.235   1.782   0.393  1.3717  0.1973  0.6212
 4970WAT     H220587   1.153   1.732   0.491 -1.8812  0.4538 -1.8051
 4970WAT    EPW20588   1.194   1.791   0.460 -0.5792  0.3048  0.1731
 4971WAT      O20589   5.141   7.545   0.391  0.0050 -0.3778  0.3143
 4971WAT     H120590   5.121   7.520   0.472  0.6872 -0.0089  0.6096
 4971WAT     H220591   5.151   7.471   0.347  2.1730 -0.6869  1.2086
 4971WAT    EPW20592   5.140   7.531   0.396  0.1955  0.2177  0.0637
 4972WAT      O20593   4.145   7.245   5.431 -0.0835  0.1502  0.1510
 4972WAT     H120594   4.217   7.255   5.479  0.9282 -3.3347 -0.4083
 4972WAT     H220595   4.173   7.252   5.349 -0.8715  1.0931 -0.0558
 4972WAT    EPW20596   4.160   7.248   5.426 -0.0767  0.6612  0.4985
 4973WAT      O20597   4.422   4.934   2.556 -0.2125  0.3648 -0.6892
 4973WAT     H120598   4.345   4.956   2.590  0.2821  3.2725 -1.1327
 4973WAT     H220599   4.444   5.004   2.508  1.0953 -1.7924 -3.5256
 4973WAT    EPW20600   4.414   4.948   2.554  0.0169  0.1728  0.1218
 4974WAT      O20601   5.683   1.688   0.703  0.4051  0.8413 -0.1620
 4974WAT     H120602   5.604   1.696   0.666  1.3972  1.1433 -2.3688
 4974WAT     H220603   5.726   1.637   0.647  1.3425 -0.6167  1.7992
 4974WAT    EPW20604   5.678   1.681   0.689  0.0601 -0.6009 -0.3301
 4975WAT      O20605   2.583   0.033   5.620  0.3833 -0.9047  0.2059
 4975WAT     H120606   2.608  -0.045   5.651  0.7410 -0.9383 -0.1488
 4975WAT     H220607   2.514   0.054   5.669  0.2452 -1.4741  0.2642
 4975WAT    EPW20608   2.577   0.024   5.632 -0.0275 -0.4600 -0.2616
 4976WAT      O20609   4.220   5.383   2.409  0.0997 -0.2274 -0.0233
 4976WAT     H120610   4.207   5.329   2.476  1.1157 -0.3363  0.0943
 4976WAT     H220611   4.262   5.450   2.445 -0.2847  0.1946 -0.3566
 4976WAT    EPW20612   4.224   5.385   2.424  0.2010  0.1035  0.1230
 4977WAT      O20613   2.013   2.764   0.630 -0.5964  0.0819 -0.0497
 4977WAT     H120614   1.938   2.742   0.666  0.3386  0.5706  2.3698
 4977WAT     H220615   2.004   2.849   0.614  0.1108  0.6609  2.2638
 4977WAT    EPW20616   2.001   2.773   0.633  0.6096  0.1473  0.0187
 4978WAT      O20617   1.052   6.994   2.494 -0.1009  0.2699 -0.6276
 4978WAT     H120618   1.131   7.014   2.525 -0.5020 -0.1767  0.7653
 4978WAT     H220619   1.067   6.925   2.443  0.3621 -0.0733 -0.0384
 4978WAT    EPW20620   1.065   6.987   2.491 -0.7726  0.3980  0.3900
 4979WAT      O20621   6.235   0.045   1.924 -0.4250  0.3069 -0.0677
 4979WAT     H120622   6.208   0.072   1.846 -1.1217  1.0633  0.4235
 4979WAT     H220623   6.315   0.014   1.908 -0.6366  0.2554 -1.1136
 4979WAT    EPW20624   6.243   0.044   1.910 -0.1847  0.5974 -0.4980
 4980WAT      O20625   4.995   0.370   2.072  0.0013  0.7665 -0.6408
 4980WAT     H120626   4.934   0.353   2.131  0.8014 -1.7048 -0.4325
 4980WAT     H220627   5.067   0.381   2.119  0.5386 -0.7033 -1.0654
 4980WAT    EPW20628   4.996   0.369   2.087 -0.0591  0.1715  0.2128
 4981WAT      O20629   2.441   6.957   1.962 -0.0849 -0.4433  0.1557
 4981WAT     H120630   2.378   7.017   1.970 -1.3227 -1.8706  1.9308
 4981WAT     H220631   2.405   6.897   1.910  0.6325 -0.3017 -0.5167
 4981WAT    EPW20632   2.426   6.957   1.955 -0.2672  0.7972  0.0671
 4982WAT      O20633   0.532   7.046   0.916 -0.2143  0.5432  0.0729
 4982WAT     H120634   0.606   7.089   0.895 -1.1467  0.8565 -3.1123
 4982WAT     H220635   0.561   6.970   0.947  1.4899  0.4637 -1.5495
 4982WAT    EPW20636   0.548   7.041   0.918  0.2421  0.5226  0.6169
 4983WAT      O20637   2.186   2.843   6.842  0.1302  0.1281 -0.2272
 4983WAT     H120638   2.131   2.776   6.830  1.2494 -1.1250  1.2693
 4983WAT     H220639   2.210   2.864   6.761 -1.8660  0.1665 -0.8707
 4983WAT    EPW20640   2.181   2.836   6.828 -0.1242  0.3998  0.2168
 4984WAT      O20641   4.613   6.435   0.223 -0.0909  0.1509  0.1208
 4984WAT     H120642   4.554   6.385   0.263 -0.0868 -0.2089 -0.3152
 4984WAT     H220643   4.592   6.516   0.248  0.4062 -0.1213  1.4775
 4984WAT    EPW20644   4.601   6.440   0.232 -0.1202 -0.1958  0.1603
 4985WAT      O20645   7.416   1.614   5.567  0.1302  0.2661 -1.0891
 4985WAT     H120646   7.495   1.649   5.557  0.6615  0.3998  2.4038
 4985WAT     H220647   7.432   1.536   5.602 -1.2507  0.8744  1.0514
 4985WAT    EPW20648   7.430   1.607   5.571  0.0402 -0.5048 -0.2750
 4986WAT      O20649   5.346   5.985   0.891  0.0864  0.1290  0.0310
 4986WAT     H120650   5.351   5.941   0.967 -0.9323 -0.8628 -0.4407
 4986WAT     H220651   5.389   5.934   0.835 -0.1528  0.2844 -0.2966
 4986WAT    EPW20652   5.353   5.971   0.894  0.6915  0.0501  0.5138
 4987WAT      O20653   7.549   5.727   2.731  0.3905  0.0216 -0.2672
 4987WAT     H120654   7.483   5.751   2.678 -0.1166  0.9638  0.7571
 4987WAT     H220655   7.536   5.774   2.803  1.1331 -1.1493  0.6714
 4987WAT    EPW20656   7.537   5.738   2.733 -0.2797  0.1476 -0.2345
 4988WAT      O20657   0.715   0.236   4.675  0.0170  0.1961 -0.1996
 4988WAT     H120658   0.668   0.235   4.749  2.0808  0.7887  1.1828
 4988WAT     H220659   0.694   0.313   4.638  0.9111  1.1107  1.1253
 4988WAT    EPW20660   0.705   0.247   4.680  0.0748 -0.2525 -0.6938
 4989WAT      O20661   1.750   4.116   6.643 -0.3113  0.5028  0.1887
 4989WAT     H120662   1.682   4.092   6.594 -0.2569  0.9806 -0.1341
 4989WAT     H220663   1.726   4.094   6.724 -0.4154 -0.2664 -0.0436
 4989WAT    EPW20664   1.736   4.109   6.648  0.3287  0.2715 -0.1710
 4990WAT      O20665   6.188   7.142   5.001  0.4981 -0.3158  0.1915
 4990WAT     H120666   6.199   7.117   5.084  0.7651  0.3402  0.3598
 4990WAT     H220667   6.102   7.156   4.995  0.6134  0.6435  0.6582
 4990WAT    EPW20668   6.177   7.140   5.012 -0.0661  0.4865 -0.5663
 4991WAT      O20669   6.595   1.506   5.493  0.0347  0.7188  0.0844
 4991WAT     H120670   6.568   1.587   5.477  0.2392  0.4687 -1.7750
 4991WAT     H220671   6.682   1.514   5.491  0.1294  0.8737  2.4524
 4991WAT    EPW20672   6.604   1.519   5.490  0.2902  0.2113  0.6104
 4992WAT      O20673   0.529   5.471   7.479 -0.0054 -0.1017  0.0065
 4992WAT     H120674   0.505   5.490   7.397 -0.2046  0.5394  0.2110
 4992WAT     H220675   0.595   5.526   7.495  1.3068 -1.4920 -0.3628
 4992WAT    EPW20676   0.535   5.482   7.469  0.2631  0.4246  0.3869
 4993WAT      O20677   2.441   2.562   0.344  0.3517 -0.3867  0.4793
 4993WAT     H120678   2.414   2.591   0.267  0.3475 -1.2108  0.1535
 4993WAT     H220679   2.422   2.627   0.399  0.6475  0.3340 -0.2598
 4993WAT    EPW20680   2.434   2.576   0.341  1.1205 -0.2742  0.1889
 4994WAT      O20681   0.498   5.465   6.990 -0.3489  0.4953  0.1560
 4994WAT     H120682   0.533   5.387   7.005  0.6708  0.8502 -0.3152
 4994WAT     H220683   0.533   5.489   6.915 -1.9546  0.6878 -0.5720
 4994WAT    EPW20684   0.508   5.457   6.981 -0.1046 -0.2565  0.2294
 4995WAT      O20685   6.504   3.148   3.925 -0.3500 -0.3337 -0.0337
 4995WAT     H120686   6.452   3.093   3.881  0.6383 -0.8384 -0.6065
 4995WAT     H220687   6.584   3.120   3.905  0.1888  1.2656 -0.2694
 4995WAT    EPW20688   6.508   3.135   3.915 -0.2530 -0.5210  0.1722
 4996WAT      O20689   6.729   5.864   5.204 -0.5897  0.2243  0.0090
 4996WAT     H120690   6.645   5.885   5.190 -0.9005 -0.9647 -0.0143
 4996WAT     H220691   6.729   5.837   5.287  0.0353  1.3834  0.4136
 4996WAT    EPW20692   6.717   5.863   5.214 -0.1691  0.0718  0.1114
 4997WAT      O20693   7.300   6.900   2.698  0.2805  0.4410  0.3215
 4997WAT     H120694   7.373   6.914   2.743  0.2645 -0.7837  0.7586
 4997WAT     H220695   7.285   6.815   2.709  0.4482 -0.0144 -2.2109
 4997WAT    EPW20696   7.309   6.889   2.706 -0.1824 -0.6632 -0.0579
 4998WAT      O20697   4.537   0.256   4.605  0.1456  0.2973  0.2898
 4998WAT     H120698   4.546   0.171   4.623  1.7621  0.4076  0.1334
 4998WAT     H220699   4.452   0.264   4.584  0.1621 -1.4509 -0.6076
 4998WAT    EPW20700   4.526   0.245   4.605  0.0153  0.9040 -0.4608
 4999WAT      O20701   3.956   5.326   6.055  0.3064  0.3975 -0.1852
 4999WAT     H120702   3.873   5.351   6.044  0.4708  1.8462  1.3229
 4999WAT     H220703   3.988   5.326   5.974 -0.1327  3.9848 -0.5481
 4999WAT    EPW20704   3.949   5.330   6.041 -0.0306  0.3999  0.7112
 5000WAT      O20705   5.121   0.156   1.899  0.7257  0.3474 -0.4423
 5000WAT     H120706   5.181   0.158   1.963 -0.5434 -0.7346  0.8512
 5000WAT     H220707   5.120   0.239   1.870  0.2776  1.3052  2.0307
 5000WAT    EPW20708   5.130   0.169   1.904  0.0794 -0.1327  0.7769
 5001WAT      O20709   2.149   0.646   1.550 -0.0140 -0.3972 -0.0593
 5001WAT     H120710   2.075   0.669   1.509 -1.4879 -1.9916  1.5435
 5001WAT     H220711   2.126   0.647   1.634  2.0738 -0.1189  0.5603
 5001WAT    EPW20712   2.134   0.650   1.556  0.0284  0.4598 -0.0141
 5002WAT      O20713   5.895   7.478   5.437 -0.2512  0.1222 -0.1222
 5002WAT     H120714   5.834   7.537   5.454 -2.0576 -0.8951 -2.4480
 5002WAT     H220715   5.927   7.457   5.516 -1.5839  2.0285  0.9930
 5002WAT    EPW20716   5.891   7.483   5.451 -0.0652 -0.1761 -0.0078
 5003WAT      O20717   3.648   1.030   6.977 -0.6214 -0.4172  0.1394
 5003WAT     H120718   3.709   0.969   6.989  0.0898  0.2085 -0.2756
 5003WAT     H220719   3.619   1.014   6.896  0.8819  0.9173 -0.7253
 5003WAT    EPW20720   3.653   1.019   6.966  0.3129  0.2858  0.0522
 5004WAT      O20721   2.930   7.224   5.866 -0.3873  0.4790 -0.5101
 5004WAT     H120722   2.864   7.171   5.888 -1.8991  2.6750  0.6092
 5004WAT     H220723   2.894   7.278   5.808  0.8279  0.9100 -0.8765
 5004WAT    EPW20724   2.915   7.224   5.861  0.0020  0.1189 -0.3072
 5005WAT      O20725   0.528   2.916   2.286 -0.4090 -0.2180 -0.8436
 5005WAT     H120726   0.586   2.868   2.331  0.9106  0.7273 -1.4774
 5005WAT     H220727   0.524   2.876   2.209 -0.1978  0.0244 -0.9797
 5005WAT    EPW20728   0.536   2.903   2.281 -0.3904 -0.0536  0.6753
 5006WAT      O20729   7.453   7.284   1.545 -0.5755 -0.5077  0.4426
 5006WAT     H120730   7.374   7.294   1.509 -0.5119 -0.1261  0.3986
 5006WAT     H220731   7.508   7.302   1.480 -0.4584  0.3430  0.7562
 5006WAT    EPW20732   7.450   7.288   1.530  0.1222  0.2651 -0.0619
 5007WAT      O20733   6.089   0.850   1.652  0.0983  0.2567  0.2287
 5007WAT     H120734   6.068   0.768   1.630  0.6343  0.0699  0.4153
 5007WAT     H220735   6.147   0.840   1.716 -0.0973  0.7882  0.4970
 5007WAT    EPW20736   6.094   0.837   1.659  0.1088  0.0095 -0.2556
 5008WAT      O20737   0.782   4.416   5.773 -0.1521 -0.0108  0.0261
 5008WAT     H120738   0.837   4.482   5.786  1.0834 -0.8957 -0.5013
 5008WAT     H220739   0.751   4.430   5.693  1.0099 -0.6546 -0.5690
 5008WAT    EPW20740   0.785   4.428   5.763  0.0313  0.0740 -0.4460
 5009WAT      O20741   5.564   6.815   1.395  0.2753 -0.3231  0.0387
 5009WAT     H120742   5.556   6.901   1.384  1.2519 -0.0613  1.1228
 5009WAT     H220743   5.547   6.782   1.316 -2.4522  0.6576  0.1160
 5009WAT    EPW20744   5.560   6.823   1.382 -0.2439  0.5423 -0.2437
 5010WAT      O20745   1.351   2.644   2.082  0.1680  0.0563  0.1801
 5010WAT     H120746   1.292   2.648   2.017 -0.2489 -0.2913  0.5243
 5010WAT     H220747   1.418   2.690   2.052  0.7198 -1.5868 -1.2805
 5010WAT    EPW20748   1.352   2.651   2.068 -0.2210  0.1743  0.1391
 5011WAT      O20749   4.091   3.977   5.729 -0.7164 -0.2786  0.6299
 5011WAT     H120750   4.037   3.990   5.662  0.9296  0.1220 -0.6726
 5011WAT     H220751   4.144   3.914   5.702  0.3570  0.3037  1.3141
 5011WAT    EPW20752   4.091   3.970   5.715 -0.0614  0.0748  0.1649
 5012WAT      O20753   0.583   5.765   6.659  0.3035 -0.0006  0.0527
 5012WAT     H120754   0.519   5.779   6.602 -0.5299  1.3814  1.2721
 5012WAT     H220755   0.654   5.756   6.608 -0.7178 -0.8203 -1.2762
 5012WAT    EPW20756   0.584   5.766   6.643  0.4248 -0.4190  0.1946
 5013WAT      O20757   2.009   7.378   3.079 -0.2885 -0.2405 -0.0311
 5013WAT     H120758   2.095   7.386   3.073 -0.1162 -1.1093  1.0526
 5013WAT     H220759   1.986   7.443   3.133 -0.4520  0.5937 -1.0739
 5013WAT    EPW20760   2.018   7.389   3.086  0.0771  0.1675  0.5174
 5014WAT      O20761   1.827   3.835   0.406 -0.5388  0.2662  0.0660
 5014WAT     H120762   1.791   3.869   0.334  0.4070  2.2301  0.4760
 5014WAT     H220763   1.912   3.854   0.398 -0.2810 -0.2238  1.3217
 5014WAT    EPW20764   1.834   3.843   0.394  0.1897  0.0825 -0.2491
 5015WAT      O20765   2.354   6.003   1.008  0.1596 -0.2911 -0.4637
 5015WAT     H120766   2.309   5.974   0.939 -0.4988  1.0880 -0.6621
 5015WAT     H220767   2.383   6.081   0.982 -1.2536  0.8869  1.2415
 5015WAT    EPW20768   2.352   6.011   0.994  0.4348 -0.4813  0.0826
 5016WAT      O20769   6.817   7.585   4.655  0.3397  0.0182  0.1579
 5016WAT     H120770   6.815   7.619   4.735  2.3799  1.4829 -0.3294
 5016WAT     H220771   6.889   7.536   4.655  1.2184  1.2243 -1.1690
 5016WAT    EPW20772   6.827   7.583   4.666  0.0748 -0.1730 -0.2548
 5017WAT      O20773   4.718   5.904   4.544  0.0428  0.4237  0.3246
 5017WAT     H120774   4.765   5.837   4.573  1.3270  0.5894 -1.2038
 5017WAT     H220775   4.733   5.967   4.602  0.9236  0.1662  0.3939
 5017WAT    EPW20776   4.727   5.903   4.557 -0.0026  0.0813  0.0529
 5018WAT      O20777   1.655   2.767   2.921  0.0092 -1.0617 -0.6110
 5018WAT     H120778   1.680   2.693   2.883  1.2046 -0.5860 -0.7734
 5018WAT     H220779   1.727   2.817   2.921 -0.7458  0.0856 -0.4572
 5018WAT    EPW20780   1.669   2.764   2.916 -0.9044  0.0733 -0.2290
 5019WAT      O20781   1.369   3.735   6.986  0.0549  0.0374 -0.2032
 5019WAT     H120782   1.311   3.791   7.019  0.5530 -0.0121  0.7937
 5019WAT     H220783   1.331   3.657   6.996  0.5388 -0.0613  1.0643
 5019WAT    EPW20784   1.355   3.732   6.992 -0.1039 -0.3051  0.1870
 5020WAT      O20785   1.291   1.298   3.916 -0.1843  0.4267  0.2445
 5020WAT     H120786   1.262   1.216   3.914 -1.2123  0.7493  1.0904
 5020WAT     H220787   1.339   1.302   3.989 -0.6085  0.7167  0.5146
 5020WAT    EPW20788   1.294   1.287   3.927  0.0266  0.1006 -0.2920
 5021WAT      O20789   0.796   4.253   4.702  0.1146 -0.3768 -0.2052
 5021WAT     H120790   0.727   4.307   4.696 -1.2520 -2.0574 -0.4651
 5021WAT     H220791   0.851   4.296   4.754 -2.6161 -0.3638  3.0472
 5021WAT    EPW20792   0.794   4.268   4.709  0.2740  0.1754  0.1390
 5022WAT      O20793   3.572   4.370   5.452 -0.1189 -0.1289  0.6540
 5022WAT     H120794   3.637   4.370   5.394  0.3179  0.6128  1.1251
 5022WAT     H220795   3.561   4.454   5.471  1.5737 -0.4397  3.6364
 5022WAT    EPW20796   3.580   4.382   5.446 -0.1271 -0.8906  0.3408
 5023WAT      O20797   0.477   4.641   5.393 -0.0093 -0.5358  0.0315
 5023WAT     H120798   0.444   4.593   5.328 -0.1343 -0.8576  0.3264
 5023WAT     H220799   0.472   4.723   5.364  0.2458 -0.7040 -0.5006
 5023WAT    EPW20800   0.471   4.646   5.379 -0.3354 -0.4091 -0.3757
 5024WAT      O20801   1.350   5.462   0.074 -0.3706  0.0234  0.1785
 5024WAT     H120802   1.309   5.409   0.130  1.2210  0.2522  1.6197
 5024WAT     H220803   1.336   5.541   0.106 -2.2209  0.5366 -1.6382
 5024WAT    EPW20804   1.342   5.466   0.087 -0.5098 -0.4384 -0.0839
 5025WAT      O20805   2.720   3.040   1.214 -0.0522  0.2177  0.8269
 5025WAT     H120806   2.715   2.960   1.178 -0.9737 -0.3734  2.1595
 5025WAT     H220807   2.694   3.093   1.150  0.5346 -0.5483 -0.0692
 5025WAT    EPW20808   2.715   3.036   1.199  0.6230 -0.8670 -0.3729
 5026WAT      O20809   0.369   4.657   6.934  0.0413  0.0811  0.4003
 5026WAT     H120810   0.329   4.721   6.891  0.8650 -0.1143 -0.7024
 5026WAT     H220811   0.374   4.687   7.016  0.9905  1.7069 -0.2206
 5026WAT    EPW20812   0.364   4.671   6.940  0.7703  0.4046  0.3735
 5027WAT      O20813   6.344   2.497   6.905  0.1837  0.0116 -0.0773
 5027WAT     H120814   6.353   2.583   6.889 -1.7226  0.2090 -0.3045
 5027WAT     H220815   6.418   2.463   6.875  0.5687  1.4659 -0.8873
 5027WAT    EPW20816   6.356   2.505   6.898 -0.1077 -0.0509  0.2279
 5028WAT      O20817   6.344   7.165   4.765  0.3261  0.1162 -0.1980
 5028WAT     H120818   6.398   7.097   4.752 -0.0362 -0.6349  1.8323
 5028WAT     H220819   6.315   7.153   4.846  0.9276  3.2220  0.6083
 5028WAT    EPW20820   6.347   7.153   4.775 -0.0778 -0.1718  0.4746
 5029WAT      O20821   7.512   3.733   4.920  0.1541 -0.6719  0.0227
 5029WAT     H120822   7.503   3.649   4.943 -0.3901 -0.8728 -0.8776
 5029WAT     H220823   7.441   3.749   4.872  0.4610  0.1877 -0.1618
 5029WAT    EPW20824   7.500   3.723   4.916  0.2865  0.4533  0.3339
 5030WAT      O20825   0.934   3.858   3.456  0.0653  0.1967 -0.2859
 5030WAT     H120826   0.902   3.868   3.537  1.5679  2.0582  0.1590
 5030WAT     H220827   0.866   3.827   3.411 -0.9280 -0.5416  1.5927
 5030WAT    EPW20828   0.919   3.855   3.462 -0.4030  0.2155 -0.0393
 5031WAT      O20829   4.992   5.054   1.159  0.3569 -0.2983  0.5554
 5031WAT     H120830   4.925   5.111   1.159  1.5259  1.1746  1.6815
 5031WAT     H220831   5.009   5.043   1.074 -1.2822 -0.7271  0.2371
 5031WAT    EPW20832   4.985   5.061   1.147  0.9002  0.2972  0.8716
 5032WAT      O20833   3.278   2.873   1.611  0.2829 -0.1978 -0.3456
 5032WAT     H120834   3.326   2.834   1.549  0.1390 -0.6335 -0.1808
 5032WAT     H220835   3.236   2.935   1.567  0.1438 -0.5353 -0.6979
 5032WAT    EPW20836   3.279   2.876   1.595  0.6310  0.5143  0.1004
 5033WAT      O20837   5.718   3.892   0.468  0.4589 -0.0796  0.1471
 5033WAT     H120838   5.692   3.875   0.386 -0.3546  0.1193  0.3603
 5033WAT     H220839   5.644   3.890   0.514  0.6073  1.8900  0.5404
 5033WAT    EPW20840   5.703   3.889   0.463  0.6225  0.4440 -0.1004
 5034WAT      O20841   6.755   5.863   6.588 -0.3553  0.1632  0.4755
 5034WAT     H120842   6.814   5.800   6.576  0.6582  1.3082 -1.0295
 5034WAT     H220843   6.742   5.894   6.507 -0.0989  2.4558  1.2251
 5034WAT    EPW20844   6.762   5.858   6.574  0.3156 -0.4473 -0.0337
 5035WAT      O20845   4.421   1.505   7.552  0.0441 -0.5917  0.1635
 5035WAT     H120846   4.353   1.451   7.552 -0.6623  0.2663 -0.6751
 5035WAT     H220847   4.420   1.539   7.633  0.0678 -1.2930  0.4605
 5035WAT    EPW20848   4.411   1.502   7.564  1.0703 -0.1032 -0.0189
 5036WAT      O20849   1.198   2.961   4.265 -0.3908  0.1854 -0.2956
 5036WAT     H120850   1.266   2.914   4.238 -1.4841 -2.9111  1.7675
 5036WAT     H220851   1.235   3.034   4.295  1.9797 -1.0298  0.0388
 5036WAT    EPW20852   1.213   2.965   4.266  0.1193  0.1910 -0.6386
 5037WAT      O20853   1.718   0.251   2.095 -0.5732  0.2224 -0.2699
 5037WAT     H120854   1.633   0.232   2.105 -1.0682  2.9723  2.1919
 5037WAT     H220855   1.728   0.252   2.008 -2.5425 -1.9456 -0.6329
 5037WAT    EPW20856   1.707   0.249   2.084 -0.1719 -0.1821  0.5626
 5038WAT      O20857   3.804   3.222   0.540 -0.0009  1.1659  0.6076
 5038WAT     H120858   3.846   3.154   0.574 -1.9721 -0.2741  0.3858
 5038WAT     H220859   3.792   3.276   0.608 -0.4155  0.1944  1.3226
 5038WAT    EPW20860   3.808   3.220   0.555  0.0762 -0.5197 -0.5107
 5039WAT      O20861   6.235   5.286   2.180 -0.0544  0.2936 -0.3604
 5039WAT     H120862   6.307   5.308   2.223 -0.5011  0.4772  0.3122
 5039WAT     H220863   6.222   5.203   2.203  0.7877 -0.2478 -1.7058
 5039WAT    EPW20864   6.244   5.277   2.190 -0.0789  0.3039  0.0368
 5040WAT      O20865   7.229   0.973   6.543 -0.4088 -0.0870  0.1238
 5040WAT     H120866   7.229   1.049   6.585 -0.5720  0.4558 -0.8215
 5040WAT     H220867   7.145   0.955   6.532 -0.5032  1.4941 -2.8722
 5040WAT    EPW20868   7.217   0.982   6.548  0.0419  0.5258  0.2556
 5041WAT      O20869   6.473   7.304   4.053  0.2991 -0.8706 -0.0387
 5041WAT     H120870   6.556   7.315   4.080  0.2387  1.5817 -0.6857
 5041WAT     H220871   6.463   7.217   4.055  2.5804 -1.1863  0.9381
 5041WAT    EPW20872   6.484   7.293   4.057  0.0263 -0.7322  0.0654
 5042WAT      O20873   1.843   1.921   3.134  0.3374  0.5887  0.2020
 5042WAT     H120874   1.768   1.899   3.096  0.0640  1.6822  0.0642
 5042WAT     H220875   1.862   1.853   3.185 -0.3197 -0.0452 -0.3894
 5042WAT    EPW20876   1.835   1.908   3.136  0.4992  0.2939 -0.2460
 5043WAT      O20877   0.113   5.613   2.581 -0.6658 -0.5591  0.1974
 5043WAT     H120878   0.062   5.542   2.582 -1.1487 -0.3569  3.9877
 5043WAT     H220879   0.066   5.673   2.622  0.4214  1.5101 -1.3907
 5043WAT    EPW20880   0.099   5.611   2.587 -0.8272 -0.1248 -0.3055
 5044WAT      O20881   7.059   2.539   2.920  0.3782  0.2708  0.3415
 5044WAT     H120882   7.026   2.532   3.001  1.0064 -2.0087  0.4790
 5044WAT     H220883   7.075   2.624   2.911 -0.2513  0.6529  2.3936
 5044WAT    EPW20884   7.057   2.550   2.931 -0.5881 -0.9836 -0.7095
 5045WAT      O20885   1.800   1.012   6.581 -0.2295  0.2894  0.0198
 5045WAT     H120886   1.829   1.050   6.508 -1.3301  1.8050  0.3198
 5045WAT     H220887   1.865   0.960   6.604  0.7017  0.8042 -1.3091
 5045WAT    EPW20888   1.814   1.010   6.573  0.0553  0.2660 -0.3702
 5046WAT      O20889   5.332   7.341   0.702 -0.1954 -0.1728  0.2727
 5046WAT     H120890   5.320   7.365   0.785 -2.3230  0.8711 -0.2738
 5046WAT     H220891   5.399   7.391   0.677  0.6863 -0.7283  1.4106
 5046WAT    EPW20892   5.341   7.352   0.711  0.5102  0.1522 -0.1377
 5047WAT      O20893   3.512   2.439   6.805  0.1319 -0.1030  0.2889
 5047WAT     H120894   3.465   2.380   6.761 -1.1769  2.1797 -1.6298
 5047WAT     H220895   3.530   2.399   6.881 -3.4754 -1.7672  0.4585
 5047WAT    EPW20896   3.508   2.424   6.810 -0.1457 -0.6709 -0.1534
 5048WAT      O20897   6.997   6.466   5.153 -0.9576  0.3907  0.0277
 5048WAT     H120898   7.009   6.529   5.212 -2.1987  0.8193 -0.1523
 5048WAT     H220899   6.910   6.462   5.145 -0.8637 -0.7652 -0.5886
 5048WAT    EPW20900   6.986   6.475   5.160  0.5135  0.3309 -0.1485
 5049WAT      O20901   2.049   3.368   2.352 -0.0417 -0.3269  0.1781
 5049WAT     H120902   1.997   3.423   2.309  1.1662 -0.8669 -2.1253
 5049WAT     H220903   2.121   3.416   2.368  0.9273 -1.0695 -1.6420
 5049WAT    EPW20904   2.052   3.383   2.348 -0.6571 -0.3075  0.0426
 5050WAT      O20905   5.873   1.104   0.278 -0.4429  0.4733 -0.2639
 5050WAT     H120906   5.953   1.080   0.303 -1.4924  0.1603  3.3214
 5050WAT     H220907   5.863   1.065   0.200  2.0505 -1.2922  0.1840
 5050WAT    EPW20908   5.883   1.095   0.270  0.3498  0.1896  0.0719
 5051WAT      O20909   1.818   4.168   3.600 -0.4670  0.3381  0.4830
 5051WAT     H120910   1.765   4.120   3.551 -0.1208  2.0058 -1.6933
 5051WAT     H220911   1.895   4.127   3.595 -0.3812  0.5837 -0.6522
 5051WAT    EPW20912   1.822   4.155   3.592 -0.1185 -0.5245  0.3257
 5052WAT      O20913   5.542   0.102   0.032  0.3480  0.5969 -0.0402
 5052WAT     H120914   5.605   0.131   0.085  0.4169  1.6472 -0.6880
 5052WAT     H220915   5.575   0.028   0.000  0.8608  0.6465  0.3572
 5052WAT    EPW20916   5.556   0.095   0.035 -0.2898  0.0912  0.5654
 5053WAT      O20917   2.327   0.737   5.742  0.0011  0.1575  0.3986
 5053WAT     H120918   2.319   0.694   5.666  1.6626 -1.7772  1.2197
 5053WAT     H220919   2.289   0.683   5.800 -2.7671  2.3338  0.8723
 5053WAT    EPW20920   2.320   0.723   5.739 -0.6365 -0.2365 -0.5377
 5054WAT      O20921   1.889   6.419   4.993  0.4897  0.3498 -0.5198
 5054WAT     H120922   1.809   6.384   5.004  0.2192  0.4070 -2.1286
 5054WAT     H220923   1.913   6.439   5.075 -0.6618 -0.7052  0.1248
 5054WAT    EPW20924   1.881   6.417   5.007  0.2741  0.1175  0.5572
 5055WAT      O20925   2.734   2.275   3.588  0.3421  0.1763  0.2146
 5055WAT     H120926   2.784   2.347   3.579  0.1797  0.0940 -1.9634
 5055WAT     H220927   2.657   2.307   3.611  0.8047  0.4982  1.3823
 5055WAT    EPW20928   2.730   2.291   3.590  0.7116 -0.6377  0.4607
 5056WAT      O20929   3.537   7.034   7.188  0.6163  0.3439 -0.4105
 5056WAT     H120930   3.582   7.107   7.171  3.5334 -1.1517  0.2832
 5056WAT     H220931   3.574   7.004   7.261 -1.0177 -1.4836 -0.2534
 5056WAT    EPW20932   3.549   7.040   7.196  0.3625 -0.4917  0.7831
 5057WAT      O20933   2.187   3.562   5.288  0.5984  0.2222 -0.0186
 5057WAT     H120934   2.178   3.496   5.232  0.1250 -0.4028  0.7811
 5057WAT     H220935   2.270   3.586   5.278  0.9993 -0.9966  0.2338
 5057WAT    EPW20936   2.198   3.556   5.278 -0.4290  0.1888  0.0034
 5058WAT      O20937   5.944   5.123   0.418  0.3330 -0.1978 -0.4541
 5058WAT     H120938   5.922   5.191   0.368 -2.9856  0.3538  1.4415
 5058WAT     H220939   5.961   5.060   0.361 -0.2164  1.2244 -2.2862
 5058WAT    EPW20940   5.943   5.124   0.402  0.2438  0.1424  0.7203
 5059WAT      O20941   3.564   2.501   7.429 -0.2630  0.1834  0.0315
 5059WAT     H120942   3.518   2.466   7.363 -1.0583  0.1120  0.6176
 5059WAT     H220943   3.618   2.436   7.452 -0.2723  0.0647 -0.2688
 5059WAT    EPW20944   3.565   2.486   7.422 -0.2474  0.1293 -0.6328
 5060WAT      O20945   5.054   5.831   3.923  0.3803  0.1205 -0.1516
 5060WAT     H120946   4.973   5.861   3.906  0.0321 -0.5133  0.3442
 5060WAT     H220947   5.068   5.775   3.857  1.9621  2.9278 -2.4474
 5060WAT    EPW20948   5.044   5.828   3.910 -0.0309  0.1535 -0.3341
 5061WAT      O20949   0.851   0.355   1.108  0.3128 -0.5410 -0.1143
 5061WAT     H120950   0.890   0.283   1.137  0.1078 -1.0204 -0.9888
 5061WAT     H220951   0.785   0.325   1.059  0.3897  0.2231 -0.7195
 5061WAT    EPW20952   0.847   0.340   1.105  0.1996  0.4880  0.6009
 5062WAT      O20953   4.168   6.844   0.817 -0.3847 -0.3314  0.4105
 5062WAT     H120954   4.097   6.795   0.826  0.3377 -1.4791  0.0875
 5062WAT     H220955   4.198   6.821   0.738  0.6475 -0.2871  0.7797
 5062WAT    EPW20956   4.162   6.834   0.806 -1.0151 -0.5256 -0.1628
 5063WAT      O20957   4.559   3.467   4.996  0.2131  0.3482  0.0650
 5063WAT     H120958   4.638   3.446   5.028 -0.8291 -0.7717  2.1314
 5063WAT     H220959   4.510   3.477   5.068 -1.8764 -0.4384 -1.1567
 5063WAT    EPW20960   4.563   3.466   5.011  0.0076  0.7548 -0.1955
 5064WAT      O20961   0.534   1.313   3.044 -0.8614 -0.4431 -0.0858
 5064WAT     H120962   0.449   1.333   3.036 -1.4753 -2.2148  1.3681
 5064WAT     H220963   0.565   1.380   3.092 -1.5280  0.0091 -0.2653
 5064WAT    EPW20964   0.526   1.326   3.050  0.0341  0.5573  0.8563
 5065WAT      O20965   1.034   4.081   5.902 -0.1024  0.5120  0.7711
 5065WAT     H120966   0.961   4.078   5.855 -0.1682  1.3694  0.8039
 5065WAT     H220967   1.068   4.159   5.883  0.4473  0.4106  1.2876
 5065WAT    EPW20968   1.029   4.092   5.892  0.0677 -0.0197  0.7801
 5066WAT      O20969   1.293   7.614   6.108  0.2459  0.4091 -0.5519
 5066WAT     H120970   1.314   7.600   6.192  1.2464  0.4441 -0.7803
 5066WAT     H220971   1.232   7.554   6.092  0.0204  0.4231  0.2148
 5066WAT    EPW20972   1.287   7.603   6.118 -0.0030  0.6159  0.1704
 5067WAT      O20973   1.414   6.315   3.323 -0.0691  0.0840  0.2220
 5067WAT     H120974   1.460   6.328   3.250  0.1784 -1.9450 -0.0362
 5067WAT     H220975   1.448   6.372   3.379  0.2091  1.1993 -1.0320
 5067WAT    EPW20976   1.426   6.325   3.320  0.1439 -0.3410  0.7070
 5068WAT      O20977   5.920   7.190   1.667 -0.0051  0.6642  0.4244
 5068WAT     H120978   5.871   7.120   1.687 -0.4918  0.7501 -0.4234
 5068WAT     H220979   5.908   7.243   1.735  0.0820  0.0809  0.9139
 5068WAT    EPW20980   5.911   7.187   1.680  0.2792  0.4941  0.1662
 5069WAT      O20981   4.367   0.194   6.825  0.3276  0.0805  0.6950
 5069WAT     H120982   4.347   0.170   6.744 -0.6808  1.1746  0.5858
 5069WAT     H220983   4.360   0.281   6.823  0.1334  0.1211  1.9951
 5069WAT    EPW20984   4.363   0.203   6.813  0.4334  0.5634 -0.2335
 5070WAT      O20985   1.526   4.458   1.931 -0.1032 -0.2260 -0.1791
 5070WAT     H120986   1.555   4.379   1.907  1.1457  0.5239 -1.2770
 5070WAT     H220987   1.454   4.440   1.977  1.1299 -2.1147  1.1952
 5070WAT    EPW20988   1.520   4.444   1.934 -0.3745 -0.2536  0.0044
 5071WAT      O20989   4.537   2.789   4.378  0.1494  0.4157  0.2481
 5071WAT     H120990   4.505   2.868   4.363  0.5389  0.1246 -2.7887
 5071WAT     H220991   4.467   2.737   4.371  0.2647  0.3120 -0.1848
 5071WAT    EPW20992   4.522   2.793   4.374 -0.0820  0.7256  0.1816
 5072WAT      O20993   1.551   4.361   4.485 -0.1164  0.2493  0.3339
 5072WAT     H120994   1.624   4.354   4.532 -0.3014 -1.5525  0.4130
 5072WAT     H220995   1.495   4.307   4.525 -0.9682  0.3537 -0.6730
 5072WAT    EPW20996   1.554   4.352   4.498  0.3440  0.2687  0.1012
 5073WAT      O20997   6.941   4.853   0.377  0.3774 -0.3425  0.2104
 5073WAT     H120998   6.860   4.863   0.408  1.3287 -0.3090  2.9743
 5073WAT     H220999   6.972   4.934   0.373  0.5350 -0.4164 -0.1074
 5073WAT    EPW21000   6.933   4.866   0.381  0.0590 -0.0809  0.2897
 5074WAT      O21001   2.864   0.396   5.353 -0.0344 -0.4633  0.2556
 5074WAT     H121002   2.847   0.431   5.275 -0.3593  0.9988  0.9564
 5074WAT     H221003   2.793   0.347   5.369  0.2272 -1.1268 -0.5409
 5074WAT    EPW21004   2.851   0.394   5.344 -0.4892  0.8534 -0.1090
 5075WAT      O21005   7.079   6.957   5.211  0.3194  0.0210  0.0917
 5075WAT     H121006   7.012   6.998   5.173 -0.3844 -0.5577  0.6896
 5075WAT     H221007   7.149   7.002   5.183 -0.3576  1.0470 -0.0036
 5075WAT    EPW21008   7.079   6.970   5.201  0.0211 -0.3583  0.3862
 5076WAT      O21009   2.953   5.452   7.337  0.1469 -0.6602 -0.0667
 5076WAT     H121010   2.885   5.502   7.359 -0.4453 -1.1053 -0.8238
 5076WAT     H221011   2.933   5.424   7.257  1.5905 -0.1799 -0.6386
 5076WAT    EPW21012   2.940   5.455   7.328  0.1239  0.5859 -0.5065
 5077WAT      O21013   5.869   1.782   4.649  0.9763  0.3694  0.2545
 5077WAT     H121014   5.834   1.740   4.717  1.6458  1.4705  1.3256
 5077WAT     H221015   5.846   1.865   4.662  0.9783  0.5894 -0.9754
 5077WAT    EPW21016   5.860   1.788   4.661 -0.8876  0.0408  0.2467
 5078WAT      O21017   4.243   1.268   3.993  0.2291 -0.4036  0.1743
 5078WAT     H121018   4.311   1.294   3.945 -1.1004 -1.3277 -2.3906
 5078WAT     H221019   4.263   1.186   4.015 -0.0044 -0.6634 -0.5506
 5078WAT    EPW21020   4.256   1.260   3.990  0.1510  0.2991  0.0585
 5079WAT      O21021   6.098   5.647   2.155 -0.2442 -0.1865 -0.7737
 5079WAT     H121022   6.103   5.614   2.074  4.3531 -0.2463 -0.6994
 5079WAT     H221023   6.082   5.577   2.204  4.1509 -1.7385 -1.1372
 5079WAT    EPW21024   6.096   5.632   2.150  1.0988  0.4280 -0.0050
 5080WAT      O21025   4.665   1.988   5.119 -0.5345  0.0072  0.1439
 5080WAT     H121026   4.662   2.071   5.148 -0.3687  0.6586 -1.5611
 5080WAT     H221027   4.652   1.997   5.033  0.2079 -1.6858 -0.1699
 5080WAT    EPW21028   4.663   2.002   5.111 -0.0418  0.2840 -0.6551
 5081WAT      O21029   5.884   6.721   1.868 -0.2274 -0.2043 -0.0428
 5081WAT     H121030   5.833   6.657   1.898 -1.3918  0.7252  0.0765
 5081WAT     H221031   5.957   6.713   1.914 -0.7886 -0.7442  0.7835
 5081WAT    EPW21032   5.887   6.711   1.879 -0.2337 -0.5120  0.6700
 5082WAT      O21033   0.871   1.312   6.362  0.0818 -0.4333 -0.0358
 5082WAT     H121034   0.955   1.323   6.343  0.1433 -0.4979  0.1981
 5082WAT     H221035   0.840   1.394   6.361  0.3032 -0.3371  0.5933
 5082WAT    EPW21036   0.879   1.326   6.359 -0.3876  0.0664 -0.1134
 5083WAT      O21037   6.143   1.581   6.315  0.2051 -0.2551  0.0353
 5083WAT     H121038   6.105   1.548   6.244  0.7390 -1.0529  0.1016
 5083WAT     H221039   6.175   1.510   6.356  1.2228  0.3239  0.2843
 5083WAT    EPW21040   6.142   1.565   6.311 -0.1742 -0.4810 -0.4185
 5084WAT      O21041   6.035   6.996   0.712  0.1626  0.2831  0.0109
 5084WAT     H121042   6.065   6.914   0.716 -0.0220  0.2545  0.9969
 5084WAT     H221043   5.956   6.987   0.676 -0.8291 -0.2769  2.1559
 5084WAT    EPW21044   6.028   6.982   0.707 -0.4572  0.2118 -0.0248
 5085WAT      O21045   0.719   1.236   3.781 -0.1059  0.0427  0.5329
 5085WAT     H121046   0.664   1.195   3.727 -2.4217  0.2154  2.5297
 5085WAT     H221047   0.711   1.320   3.758  0.6993 -0.0914 -0.2847
 5085WAT    EPW21048   0.709   1.243   3.770  0.4629 -0.1122  0.3307
 5086WAT      O21049   6.831   0.801   1.009  0.0690 -0.1848  0.4347
 5086WAT     H121050   6.907   0.761   1.026  0.4778  0.2824 -0.2603
 5086WAT     H221051   6.855   0.873   0.966 -0.8405 -0.7716 -1.1283
 5086WAT    EPW21052   6.846   0.805   1.005 -0.0943  0.4216  0.1389
 5087WAT      O21053   6.912   1.231   5.517 -0.1697  0.1142 -0.1322
 5087WAT     H121054   6.956   1.180   5.462 -1.1205 -0.8161 -0.0411
 5087WAT     H221055   6.968   1.297   5.531  1.0132 -0.7899 -0.3896
 5087WAT    EPW21056   6.927   1.234   5.511  0.3130  0.0820 -0.2889
 5088WAT      O21057   0.208   0.710   7.229 -0.1340 -0.1807  0.1211
 5088WAT     H121058   0.292   0.690   7.216  0.1457  0.3561  1.0073
 5088WAT     H221059   0.211   0.779   7.283 -1.1301  0.3102 -0.4168
 5088WAT    EPW21060   0.221   0.717   7.235 -0.1926 -1.0850 -0.1230
 5089WAT      O21061   5.848   1.224   2.344  0.3553  0.0018 -0.3822
 5089WAT     H121062   5.835   1.309   2.355 -1.3786 -0.2100 -0.5045
 5089WAT     H221063   5.837   1.213   2.258 -1.6067 -0.6223 -0.1058
 5089WAT    EPW21064   5.845   1.235   2.333  0.9287  0.2242  0.6257
 5090WAT      O21065   4.209   1.881   5.221  0.0450 -0.2040 -0.0905
 5090WAT     H121066   4.162   1.811   5.202  0.9505 -1.1113  0.8701
 5090WAT     H221067   4.217   1.877   5.308  0.4272  0.8823 -0.0615
 5090WAT    EPW21068   4.203   1.870   5.231  0.0137 -0.7085 -0.8463
 5091WAT      O21069   5.027   0.910   5.703 -0.8776 -0.2645  0.1148
 5091WAT     H121070   4.987   0.904   5.625 -0.7949  2.0421 -0.1864
 5091WAT     H221071   5.062   0.831   5.714 -2.7812 -1.3707 -1.1129
 5091WAT    EPW21072   5.026   0.898   5.693 -0.2354  0.1966 -0.0712
 5092WAT      O21073   4.855   5.302   7.037 -0.3148 -0.1086 -0.4438
 5092WAT     H121074   4.896   5.348   7.098 -0.7244 -0.0147 -0.2345
 5092WAT     H221075   4.918   5.284   6.979  0.3442 -1.2511  0.5951
 5092WAT    EPW21076   4.870   5.306   7.037 -0.0278  0.2421 -0.1241
 5093WAT      O21077   0.617   1.761   6.277 -0.2190  0.3974 -0.1237
 5093WAT     H121078   0.677   1.713   6.318  1.5657  1.7975 -0.9581
 5093WAT     H221079   0.581   1.705   6.221  0.3959 -0.4400  0.3031
 5093WAT    EPW21080   0.621   1.745   6.275  0.2394 -0.7099  0.4382
 5094WAT      O21081   0.395   4.575   5.817  0.0635 -0.2656  0.6990
 5094WAT     H121082   0.372   4.587   5.901 -0.8079 -1.2067  0.6120
 5094WAT     H221083   0.482   4.578   5.819  0.0311  0.9825  1.4303
 5094WAT    EPW21084   0.404   4.577   5.830  0.1299  0.0461 -0.0143
 5095WAT      O21085   5.209   2.737   4.068  0.4022 -0.3528  0.1542
 5095WAT     H121086   5.125   2.741   4.091 -0.0287  1.3453 -1.4116
 5095WAT     H221087   5.235   2.820   4.074  1.0903 -0.3244 -2.2427
 5095WAT    EPW21088   5.200   2.750   4.073  0.3602 -0.1446  0.2753
 5096WAT      O21089   6.175   4.162   4.979  0.1294 -0.9674 -0.0901
 5096WAT     H121090   6.217   4.155   4.903  1.3293 -1.6885  0.6118
 5096WAT     H221091   6.137   4.084   4.989  1.1001 -1.3647  0.6687
 5096WAT    EPW21092   6.176   4.150   4.969  0.1782  0.2799  0.5405
 5097WAT      O21093   0.176   1.635   1.083 -0.1370  0.1635  0.0253
 5097WAT     H121094   0.176   1.600   1.003  1.6572  0.7924 -0.3092
 5097WAT     H221095   0.092   1.643   1.102 -0.6032 -0.3792 -1.6418
 5097WAT    EPW21096   0.164   1.631   1.074  0.4577 -0.8007 -0.0905
 5098WAT      O21097   7.202   2.591   5.353  0.0586  0.0897  0.3999
 5098WAT     H121098   7.246   2.522   5.384 -1.2557 -1.1874 -0.4621
 5098WAT     H221099   7.182   2.568   5.271 -0.3221  1.5576  0.0443
 5098WAT    EPW21100   7.205   2.577   5.345 -0.0318 -0.2571  0.2880
 5099WAT      O21101   0.320   1.455   3.944  0.2521 -0.0635 -0.2420
 5099WAT     H121102   0.351   1.443   3.863  1.3855 -2.0973  0.4321
 5099WAT     H221103   0.265   1.388   3.955 -1.7152  1.4895 -0.1019
 5099WAT    EPW21104   0.316   1.443   3.933 -0.1044  0.2681  0.2678
 5100WAT      O21105   1.770   1.071   1.739  0.0393  0.0413 -0.4249
 5100WAT     H121106   1.818   1.135   1.776  1.4112 -1.8004  1.2013
 5100WAT     H221107   1.690   1.086   1.769  0.1217  1.4881 -0.8125
 5100WAT    EPW21108   1.765   1.083   1.749  0.3621  0.1085 -0.7126
 5101WAT      O21109   6.497   2.240   1.912  0.0875  0.2994 -0.3285
 5101WAT     H121110   6.512   2.215   1.994 -0.8836  0.4553 -0.0871
 5101WAT     H221111   6.559   2.199   1.866 -0.0916 -0.7471  0.3354
 5101WAT    EPW21112   6.508   2.230   1.918 -0.3554  0.7542  0.4607
 5102WAT      O21113   1.884   1.954   2.322  0.1535 -0.5272 -0.2213
 5102WAT     H121114   1.930   1.963   2.396 -0.1314  2.1255 -0.2532
 5102WAT     H221115   1.944   1.969   2.260 -0.1020 -0.2311 -0.3987
 5102WAT    EPW21116   1.900   1.958   2.324  0.4713 -0.1740  0.2060
 5103WAT      O21117   0.806   1.975   1.021  0.7604  0.3277 -0.0996
 5103WAT     H121118   0.778   2.056   1.005  0.2237 -0.0671 -1.2276
 5103WAT     H221119   0.771   1.927   0.958  0.7722 -0.8716  0.7551
 5103WAT    EPW21120   0.797   1.980   1.010 -0.2737 -0.5443  0.1495
 5104WAT      O21121   0.538   7.488   6.571  0.8240 -0.1227 -0.6285
 5104WAT     H121122   0.504   7.412   6.595 -1.5106  0.6923 -1.0416
 5104WAT     H221123   0.535   7.535   6.644 -0.1702  0.3309 -0.9378
 5104WAT    EPW21124   0.533   7.484   6.585 -0.0709  0.4069 -0.1867
 5105WAT      O21125   7.596   6.778   7.354  0.3617 -0.3861  0.5813
 5105WAT     H121126   7.672   6.778   7.310  1.4888 -0.5008  2.3932
 5105WAT     H221127   7.567   6.696   7.343  0.4372 -0.3072 -0.2415
 5105WAT    EPW21128   7.603   6.766   7.346 -0.2321  0.4505 -0.2709
 5106WAT      O21129   6.052   3.631   1.384 -0.3845 -0.4405 -0.3180
 5106WAT     H121130   6.047   3.658   1.301  1.5703 -0.2474 -0.4173
 5106WAT     H221131   6.013   3.694   1.429  0.0564  0.2994 -0.9526
 5106WAT    EPW21132   6.046   3.644   1.378 -0.0258 -0.6738 -0.2015
 5107WAT      O21133   2.579   5.910   2.590  0.1716  0.1742  0.8488
 5107WAT     H121134   2.610   5.936   2.668 -1.0240 -0.6119  1.6120
 5107WAT     H221135   2.521   5.972   2.570 -1.9223 -1.2253  2.1831
 5107WAT    EPW21136   2.575   5.923   2.598  0.2226  0.2695  0.3699
 5108WAT      O21137   3.131   1.362   3.790 -0.0931 -0.2342 -0.2209
 5108WAT     H121138   3.060   1.361   3.739 -0.9217 -0.3768  0.8862
 5108WAT     H221139   3.194   1.394   3.738 -0.9765 -0.0476 -1.2076
 5108WAT    EPW21140   3.130   1.367   3.775  0.1218 -0.1857  0.3986
 5109WAT      O21141   0.759   3.345   0.300  0.3219  0.9284  0.0255
 5109WAT     H121142   0.704   3.324   0.365  0.4337  0.3241 -0.0749
 5109WAT     H221143   0.828   3.294   0.314  0.2772  0.6747 -0.6690
 5109WAT    EPW21144   0.761   3.334   0.312 -0.3291 -0.5259  0.2780
 5110WAT      O21145   3.167   5.504   0.912 -0.0723 -0.0926  0.5136
 5110WAT     H121146   3.162   5.576   0.863 -0.6153 -1.2404 -1.2434
 5110WAT     H221147   3.247   5.473   0.894  0.9547  0.9942  2.7693
 5110WAT    EPW21148   3.178   5.510   0.902  0.2378 -0.0945  0.6874
 5111WAT      O21149   2.485   7.509   5.387  0.2818 -0.1134  0.5984
 5111WAT     H121150   2.572   7.503   5.377  0.1281 -0.8584 -0.5016
 5111WAT     H221151   2.476   7.559   5.458  1.6030  0.2485  0.5396
 5111WAT    EPW21152   2.497   7.515   5.396  0.1312 -0.1152 -0.0985
 5112WAT      O21153   6.103   3.849   0.235 -0.8456 -0.3888  0.3093
 5112WAT     H121154   6.066   3.908   0.182 -2.3166  0.9670  2.6613
 5112WAT     H221155   6.135   3.789   0.180 -1.2953  1.4380 -2.1163
 5112WAT    EPW21156   6.103   3.849   0.219 -0.0611  0.1742  0.1706
 5113WAT      O21157   0.116   0.776   3.579 -0.0542  0.5616 -0.2861
 5113WAT     H121158   0.192   0.760   3.539  0.4490 -1.4105  1.2909
 5113WAT     H221159   0.057   0.768   3.515  0.8589 -0.8185 -1.0026
 5113WAT    EPW21160   0.118   0.772   3.564 -0.4186  0.1836 -0.2590
 5114WAT      O21161   3.264   6.472   0.102  0.1619 -0.4585 -0.3759
 5114WAT     H121162   3.313   6.425   0.048  0.5504 -1.1556  0.5689
 5114WAT     H221163   3.300   6.551   0.099  0.9221 -0.7935 -0.2284
 5114WAT    EPW21164   3.276   6.477   0.094 -0.0444 -0.0643 -0.4237
 5115WAT      O21165   1.938   4.993   7.101  0.3116  0.1685 -0.9642
 5115WAT     H121166   1.941   4.910   7.076  1.9261 -0.7424  1.7752
 5115WAT     H221167   1.904   4.990   7.181  2.3000  1.8066  0.0694
 5115WAT    EPW21168   1.933   4.981   7.109  0.4034 -0.0060  0.0993
 5116WAT      O21169   1.101   2.501   7.557  1.3340  0.3813 -0.4256
 5116WAT     H121170   1.137   2.491   7.635 -0.2918  0.8086  0.4273
 5116WAT     H221171   1.122   2.428   7.514  3.7949  0.9333 -0.2855
 5116WAT    EPW21172   1.109   2.489   7.562 -0.2821  0.2698  0.4876
 5117WAT      O21173   4.620   7.464   3.189 -0.7392  0.4077  0.4319
 5117WAT     H121174   4.684   7.503   3.235  1.4515 -1.1197 -1.1413
 5117WAT     H221175   4.599   7.523   3.128  0.8652  0.0932 -0.4663
 5117WAT    EPW21176   4.626   7.479   3.187 -0.1747  0.4072 -0.4844
 5118WAT      O21177   5.237   2.482   5.022  0.5246 -0.5715 -0.1378
 5118WAT     H121178   5.211   2.507   4.942  0.4377 -0.1167  0.0318
 5118WAT     H221179   5.313   2.523   5.032 -0.1514  0.5476  0.5965
 5118WAT    EPW21180   5.245   2.492   5.012  0.8752 -0.0199 -0.7158
 5119WAT      O21181   2.746   6.458   6.057 -0.5662  0.9915  0.3968
 5119WAT     H121182   2.802   6.502   6.107  0.4069 -0.8770  1.0782
 5119WAT     H221183   2.707   6.404   6.114  1.1771 -1.8207 -0.8531
 5119WAT    EPW21184   2.748   6.456   6.073  0.8212 -0.0617 -0.0276
 5120WAT      O21185   1.527   6.267   4.007  0.0626  0.1974 -0.1700
 5120WAT     H121186   1.562   6.204   3.957  0.3496  1.8459 -2.1635
 5120WAT     H221187   1.442   6.264   3.987  0.3135  1.4731 -1.5328
 5120WAT    EPW21188   1.520   6.257   3.997 -0.1792  0.0310 -0.2995
 5121WAT      O21189   4.962   4.192   0.599 -0.4106  0.2467  0.3018
 5121WAT     H121190   4.935   4.274   0.611 -0.7775  0.1708 -0.0044
 5121WAT     H221191   5.042   4.202   0.565 -0.5287  0.4765  0.0908
 5121WAT    EPW21192   4.970   4.206   0.596 -0.0931 -0.8854 -0.4194
 5122WAT      O21193   2.669   1.142   3.201 -0.6480 -0.7834 -0.7971
 5122WAT     H121194   2.667   1.087   3.269 -1.1066 -0.5746 -0.6366
 5122WAT     H221195   2.585   1.149   3.178 -0.7541  0.7483 -0.0738
 5122WAT    EPW21196   2.656   1.135   3.208  0.4849  0.1461 -0.0248
 5123WAT      O21197   7.180   2.413   4.376  0.1051 -1.0338 -0.3938
 5123WAT     H121198   7.179   2.343   4.325  1.8758  0.0107 -1.9821
 5123WAT     H221199   7.259   2.448   4.362 -0.3644  0.7648  1.0521
 5123WAT    EPW21200   7.191   2.408   4.366  0.0767 -0.5780  0.0182
 5124WAT      O21201   2.270   2.436   2.536 -0.1699  0.0195  0.3824
 5124WAT     H121202   2.312   2.386   2.478 -0.2836 -0.5266  0.7629
 5124WAT     H221203   2.253   2.509   2.492 -1.2933 -0.8279 -0.6646
 5124WAT    EPW21204   2.274   2.439   2.521  0.3786 -0.0868  0.2618
 5125WAT      O21205   0.796   4.646   7.137 -0.3380 -0.1817  0.1896
 5125WAT     H121206   0.769   4.566   7.158 -1.4486  0.0022 -0.5132
 5125WAT     H221207   0.808   4.684   7.215 -0.5992 -0.7592  0.5189
 5125WAT    EPW21208   0.794   4.640   7.152 -0.1135  0.0577  0.3999
 5126WAT      O21209   6.560   4.822   7.038 -0.1091  0.1257 -0.2423
 5126WAT     H121210   6.489   4.798   7.082  0.4323 -0.2664  0.4335
 5126WAT     H221211   6.528   4.849   6.961 -0.6965 -3.9108 -1.6450
 5126WAT    EPW21212   6.545   4.823   7.033 -0.1552 -0.4968  0.3199
 5127WAT      O21213   0.282   1.818   5.010 -0.3845 -0.5176  0.2416
 5127WAT     H121214   0.322   1.749   4.973  0.1501 -0.3248  0.4594
 5127WAT     H221215   0.336   1.841   5.074 -0.0872  0.7036 -0.4169
 5127WAT    EPW21216   0.296   1.811   5.014 -0.0306  0.2784  0.5373
 5128WAT      O21217   5.335   4.497   2.045  0.8706  0.3346 -0.8157
 5128WAT     H121218   5.276   4.499   1.981 -0.0208 -0.1962 -0.0397
 5128WAT     H221219   5.347   4.412   2.059 -0.4959  0.4038  1.0732
 5128WAT    EPW21220   5.328   4.485   2.037 -0.0530 -1.0336 -0.0417
 5129WAT      O21221   5.109   0.813   3.232  0.5715 -0.0503  0.1636
 5129WAT     H121222   5.057   0.878   3.257 -0.4865 -0.1027 -1.7079
 5129WAT     H221223   5.055   0.745   3.224  0.6412  0.0999 -2.6670
 5129WAT    EPW21224   5.093   0.813   3.234 -0.3479  0.1448  0.3659
 5130WAT      O21225   5.674   6.788   0.175  0.5150  0.0445  0.2040
 5130WAT     H121226   5.613   6.739   0.214  1.3855 -1.1676  0.1150
 5130WAT     H221227   5.631   6.824   0.108  0.1701 -1.9056 -0.7154
 5130WAT    EPW21228   5.658   6.786   0.171 -0.0109 -0.0371  0.1122
 5131WAT      O21229   4.217   4.226   0.507  0.2998  0.3551  0.0101
 5131WAT     H121230   4.258   4.171   0.560 -0.8478 -0.3261  0.2396
 5131WAT     H221231   4.251   4.303   0.527  1.8232 -0.2328 -0.1950
 5131WAT    EPW21232   4.228   4.229   0.518 -0.1678  0.2326 -0.2211
 5132WAT      O21233   3.585   3.068   1.101  0.3997 -0.2370  0.0685
 5132WAT     H121234   3.608   3.029   1.175 -0.2626 -1.2462 -0.2242
 5132WAT     H221235   3.522   3.123   1.125  0.0536 -0.6988  0.2427
 5132WAT    EPW21236   3.579   3.070   1.115 -0.1690 -0.2123  0.2873
 5133WAT      O21237   1.658   6.745   6.137 -0.3673  0.0565 -0.5059
 5133WAT     H121238   1.665   6.711   6.057  0.1400 -1.6958  0.2248
 5133WAT     H221239   1.676   6.830   6.125  0.7588 -0.3546 -2.0906
 5133WAT    EPW21240   1.662   6.753   6.123 -0.4712 -0.8808 -0.0403
 5134WAT      O21241   7.342   1.653   6.104  0.0508  0.0024 -0.0082
 5134WAT     H121242   7.379   1.578   6.082 -2.0301 -1.1480  0.1107
 5134WAT     H221243   7.389   1.713   6.062  1.5950 -1.3770 -0.3220
 5134WAT    EPW21244   7.354   1.651   6.094 -0.6186  0.4808 -0.0375
 5135WAT      O21245   1.461   4.938   6.099  0.1463 -0.4810 -0.2371
 5135WAT     H121246   1.420   5.012   6.077  1.7993  1.1701  1.8262
 5135WAT     H221247   1.425   4.878   6.046 -1.8199  1.6160 -1.4504
 5135WAT    EPW21248   1.450   4.940   6.088  0.1903  0.2520 -0.1594
 5136WAT      O21249   2.895   6.276   3.971 -0.1638  0.0737 -0.0264
 5136WAT     H121250   2.935   6.223   4.029  2.5615  0.6417 -1.2191
 5136WAT     H221251   2.832   6.314   4.018  0.6003 -1.0139  2.0084
 5136WAT    EPW21252   2.892   6.274   3.987 -0.8454 -0.2219  0.1875
 5137WAT      O21253   5.881   0.738   3.587  0.0322  0.3338  0.3283
 5137WAT     H121254   5.847   0.801   3.538 -0.7533 -0.0829  0.3178
 5137WAT     H221255   5.926   0.689   3.530 -0.4161  0.1669  0.1159
 5137WAT    EPW21256   5.883   0.740   3.572  0.8404  0.1666  0.3269
 5138WAT      O21257   2.218   2.938   3.306 -0.4310 -0.3270 -0.2461
 5138WAT     H121258   2.215   2.894   3.382  2.0011  0.5519  0.4193
 5138WAT     H221259   2.154   2.997   3.314 -0.3238 -0.3633  1.0602
 5138WAT    EPW21260   2.208   2.940   3.319  0.2202  0.7172  0.3219
 5139WAT      O21261   0.786   5.607   2.521 -0.3926 -0.4424 -0.2187
 5139WAT     H121262   0.861   5.649   2.508 -0.1191 -1.4537 -2.3913
 5139WAT     H221263   0.784   5.595   2.607  2.5799 -1.4830 -0.1711
 5139WAT    EPW21264   0.797   5.611   2.532  0.1965  0.1877 -0.1193
 5140WAT      O21265   4.997   5.401   3.233 -0.4080 -0.3709 -0.1900
 5140WAT     H121266   5.031   5.334   3.189 -2.4599 -1.7764  0.2277
 5140WAT     H221267   4.911   5.392   3.220 -0.8322  1.2203  1.2337
 5140WAT    EPW21268   4.989   5.390   3.224 -0.2452 -0.0328  0.5833
 5141WAT      O21269   0.062   0.559   1.088  0.3656 -0.1247 -0.5073
 5141WAT     H121270   0.019   0.498   1.042 -0.3097  0.3443 -0.5184
 5141WAT     H221271   0.002   0.621   1.100  1.5265  1.4246 -2.1282
 5141WAT    EPW21272   0.046   0.559   1.083  0.2116  0.9204 -0.4372
 5142WAT      O21273   1.834   6.738   7.304 -0.2896 -0.1787 -0.3506
 5142WAT     H121274   1.772   6.798   7.311 -0.7456 -0.3278 -2.4855
 5142WAT     H221275   1.866   6.750   7.224  3.0554  0.4321  0.9249
 5142WAT    EPW21276   1.830   6.749   7.293  0.0613  0.0718  0.5656
 5143WAT      O21277   2.753   4.940   6.880 -0.3067 -0.6984 -0.6307
 5143WAT     H121278   2.702   4.927   6.810 -0.2549 -1.2817 -0.5650
 5143WAT     H221279   2.830   4.961   6.846 -0.2577 -1.0724 -0.7475
 5143WAT    EPW21280   2.757   4.941   6.865  0.1819 -0.3238  0.7082
 5144WAT      O21281   0.448   5.424   4.866 -0.7434 -0.1723 -0.6007
 5144WAT     H121282   0.533   5.407   4.869 -0.7794 -0.3409 -0.5117
 5144WAT     H221283   0.432   5.460   4.945 -1.0014 -1.3174 -0.1151
 5144WAT    EPW21284   0.458   5.427   4.878 -0.1920 -0.2473 -0.4007
 5145WAT      O21285   6.051   0.993   4.707 -0.1768  0.5049  0.1971
 5145WAT     H121286   6.119   0.940   4.693  1.8044  3.0038 -0.3797
 5145WAT     H221287   5.986   0.939   4.727  1.9788 -2.0292  0.8276
 5145WAT    EPW21288   6.052   0.977   4.708  0.4962  0.1543  0.0560
 5146WAT      O21289   4.693   1.468   4.533 -0.0277  0.0345  0.4809
 5146WAT     H121290   4.642   1.523   4.578  0.3819 -0.2495  1.3301
 5146WAT     H221291   4.772   1.481   4.567  0.2211 -0.4784  0.1121
 5146WAT    EPW21292   4.697   1.478   4.545  0.1742  0.7767 -0.5013
 5147WAT      O21293   5.308   2.576   3.302 -0.9156  0.2308  0.6170
 5147WAT     H121294   5.376   2.540   3.342  0.2466 -0.9464 -2.1415
 5147WAT     H221295   5.324   2.662   3.306  1.8674 -0.0472 -1.5714
 5147WAT    EPW21296   5.320   2.584   3.308  0.3580 -0.8168 -0.5552
 5148WAT      O21297   5.679  -0.000   2.390 -0.4979  0.2500  0.1789
 5148WAT     H121298   5.731   0.060   2.353 -0.4262  1.0963  1.5970
 5148WAT     H221299   5.667   0.030   2.471 -0.7992 -1.4480  0.8084
 5148WAT    EPW21300   5.685   0.013   2.396  0.0098 -0.4659 -0.1619
 5149WAT      O21301   4.333   0.940   7.241 -0.6402  0.0895 -0.2084
 5149WAT     H121302   4.250   0.963   7.234 -0.3224  1.5621  0.5368
 5149WAT     H221303   4.370   1.006   7.285  0.7318 -0.9533  0.3048
 5149WAT    EPW21304   4.326   0.953   7.246  0.3149  0.1209  0.0784
 5150WAT      O21305   3.256   1.646   4.726 -0.3230 -0.5679  0.1766
 5150WAT     H121306   3.253   1.697   4.655 -1.9407 -0.1062  0.5319
 5150WAT     H221307   3.309   1.690   4.780 -1.9069  0.9661  0.5875
 5150WAT    EPW21308   3.264   1.660   4.723 -0.5133  0.0440  0.5402
 5151WAT      O21309   6.975   6.523   0.281 -0.6479  0.1767 -0.0143
 5151WAT     H121310   6.888   6.527   0.276 -0.6804 -1.3596 -2.2470
 5151WAT     H221311   6.995   6.452   0.233  1.9874  2.0079 -1.9168
 5151WAT    EPW21312   6.965   6.513   0.273  0.7981 -0.0688  0.1679
 5152WAT      O21313   2.599   6.508   4.538  0.5648  0.3720  0.2029
 5152WAT     H121314   2.668   6.455   4.543  2.5130  2.4176 -1.9950
 5152WAT     H221315   2.634   6.588   4.547 -1.3572  1.5349 -1.5415
 5152WAT    EPW21316   2.614   6.512   4.540 -0.5342 -0.2676  0.1421
 5153WAT      O21317   6.693   6.993   5.566 -0.1169  0.1860 -0.2642
 5153WAT     H121318   6.664   7.063   5.523 -0.3529  1.0076  1.1831
 5153WAT     H221319   6.634   6.980   5.629  1.2215  0.2599  1.0708
 5153WAT    EPW21320   6.680   7.001   5.569 -0.3695  0.5722  0.0446
 5154WAT      O21321   5.784   7.543   4.257  0.0269  0.3923  0.1683
 5154WAT     H121322   5.845   7.488   4.226 -0.2873 -0.0330  0.2970
 5154WAT     H221323   5.803   7.619   4.218  2.5296  1.1150  2.5206
 5154WAT    EPW21324   5.796   7.546   4.246 -0.2397 -0.0937  0.0510
 5155WAT      O21325   6.097   1.754   5.019  0.0108 -0.2354 -0.4886
 5155WAT     H121326   6.125   1.835   5.031 -0.2764 -0.4687  2.2332
 5155WAT     H221327   6.039   1.761   4.955  0.1442  1.6478 -0.4376
 5155WAT    EPW21328   6.093   1.767   5.011  0.7773  0.3581  0.5194
 5156WAT      O21329   1.759   4.068   4.903 -0.1993 -0.0672  0.1151
 5156WAT     H121330   1.785   3.986   4.893 -1.5174 -0.5551  0.4220
 5156WAT     H221331   1.692   4.075   4.848  0.7159  1.2289 -0.8844
 5156WAT    EPW21332   1.753   4.057   4.894  0.0981  0.1031  0.4281
 5157WAT      O21333   4.245   2.004   1.261  0.0386 -0.3490 -0.3953
 5157WAT     H121334   4.304   1.969   1.207 -0.4228 -1.8420  0.0092
 5157WAT     H221335   4.184   2.036   1.207 -0.3608 -1.7230 -0.8138
 5157WAT    EPW21336   4.244   2.004   1.245 -0.4517  0.5376 -0.1117
 5158WAT      O21337   4.273   0.376   3.397  0.2743 -0.2862  0.6032
 5158WAT     H121338   4.240   0.386   3.477 -1.5419 -1.9863  0.1534
 5158WAT     H221339   4.214   0.413   3.345  0.5243 -0.7870 -0.0527
 5158WAT    EPW21340   4.260   0.383   3.401  0.0478 -0.4748  0.0818
 5159WAT      O21341   4.053   3.011   6.216 -0.6998 -0.0323 -0.3679
 5159WAT     H121342   4.117   2.984   6.268 -1.0870 -0.2257  0.0105
 5159WAT     H221343   4.063   3.098   6.214 -0.4395 -0.0607 -0.3016
 5159WAT    EPW21344   4.064   3.020   6.223  0.2669 -0.1268  0.0063
 5160WAT      O21345   1.013   3.046   1.445  0.2033  0.0767 -0.1015
 5160WAT     H121346   1.064   2.977   1.460 -1.1787 -0.5959  1.9253
 5160WAT     H221347   0.947   3.013   1.398  0.4405  0.4375 -0.7031
 5160WAT    EPW21348   1.011   3.031   1.440  0.5026 -0.2535 -0.1817
 5161WAT      O21349   2.171   1.388   6.877  0.1086 -0.3167 -0.3182
 5161WAT     H121350   2.249   1.403   6.913 -0.4895  0.5382  0.6511
 5161WAT     H221351   2.141   1.467   6.857 -1.2864 -0.4590  1.0082
 5161WAT    EPW21352   2.178   1.402   6.879 -0.3515 -0.5166 -0.2964
 5162WAT      O21353   0.249   6.108   6.976 -0.3975 -0.7025  0.2999
 5162WAT     H121354   0.307   6.051   6.944 -0.4358 -1.2846  1.2518
 5162WAT     H221355   0.222   6.071   7.050 -2.0809 -0.5054 -0.1736
 5162WAT    EPW21356   0.253   6.094   6.982  0.4381 -0.2933  0.3405
 5163WAT      O21357   5.058   6.030   1.569  0.3351 -0.9162  0.1284
 5163WAT     H121358   5.059   6.108   1.609 -3.8730  0.2250 -1.4298
 5163WAT     H221359   5.103   6.045   1.496  1.4116 -0.6476  0.8264
 5163WAT    EPW21360   5.065   6.044   1.564 -0.4313 -0.0367 -0.8120
 5164WAT      O21361   6.644   0.595   4.226  0.1850 -0.0947 -0.4524
 5164WAT     H121362   6.688   0.667   4.205  2.9368 -1.5734 -0.1856
 5164WAT     H221363   6.642   0.550   4.151  1.7845 -1.2945  0.1732
 5164WAT    EPW21364   6.650   0.599   4.212  0.2181 -0.3021 -0.3132
 5165WAT      O21365   6.446   5.401   3.932  0.1587  0.4145 -1.1586
 5165WAT     H121366   6.495   5.393   4.003 -0.1008 -2.3685 -1.1991
 5165WAT     H221367   6.488   5.461   3.884  0.0147  2.8368  1.4836
 5165WAT    EPW21368   6.459   5.409   3.935 -0.2367 -0.3674  0.6837
 5166WAT      O21369   2.524   2.548   1.781 -0.1980 -0.2780  0.1135
 5166WAT     H121370   2.444   2.546   1.817 -0.1627 -0.2199  0.1989
 5166WAT     H221371   2.565   2.480   1.817 -0.4610 -0.7845 -0.5467
 5166WAT    EPW21372   2.519   2.538   1.792  0.2933 -0.2065 -0.1312
 5167WAT      O21373   7.644   4.133   1.446 -0.0640 -0.1529  0.1897
 5167WAT     H121374   7.581   4.152   1.504 -0.3288  0.4825 -0.2919
 5167WAT     H221375   7.600   4.103   1.377 -0.0730  2.2888 -0.9813
 5167WAT    EPW21376   7.628   4.132   1.445  0.4884  0.7700  0.4334
 5168WAT      O21377   3.677   1.570   2.887  0.2902 -0.0063 -0.4511
 5168WAT     H121378   3.597   1.603   2.879 -0.9046 -1.7995  2.3662
 5168WAT     H221379   3.686   1.520   2.816  0.1570  2.3630 -2.2365
 5168WAT    EPW21380   3.667   1.568   2.876  0.0521 -0.3333 -0.2066
 5169WAT      O21381   1.390   3.549   2.304 -0.2392  0.6017  0.1090
 5169WAT     H121382   1.349   3.474   2.323  1.0646 -0.6704 -1.6841
 5169WAT     H221383   1.369   3.601   2.370 -2.2081 -0.9373  0.8122
 5169WAT    EPW21384   1.381   3.545   2.317 -0.1882  0.2971 -0.4665
 5170WAT      O21385   5.087   2.058   0.065  0.3054 -0.4822  0.5771
 5170WAT     H121386   5.028   2.057   0.130 -0.9872 -0.4295 -0.5544
 5170WAT     H221387   5.098   1.974   0.046 -2.2945 -0.4761 -1.6427
 5170WAT    EPW21388   5.080   2.046   0.072  0.7958 -0.0500 -0.2980
 5171WAT      O21389   7.004   3.276   2.531  0.1894 -0.1316 -0.0581
 5171WAT     H121390   7.037   3.346   2.572 -0.7850 -0.4713  1.3784
 5171WAT     H221391   7.070   3.220   2.531  0.6076  0.3475 -0.1430
 5171WAT    EPW21392   7.018   3.278   2.537 -0.3821  0.1540 -0.0163
 5172WAT      O21393   2.840   2.968   5.373  0.1642  0.3791 -0.5630
 5172WAT     H121394   2.916   3.007   5.354  0.9622 -0.8363 -0.0522
 5172WAT     H221395   2.852   2.886   5.344  0.1741 -0.6119  1.9851
 5172WAT    EPW21396   2.853   2.962   5.366  0.1210  0.3905 -0.0153
 5173WAT      O21397   4.308   7.165   3.843  0.8332  0.2630  0.2151
 5173WAT     H121398   4.316   7.084   3.811  1.6459 -0.0474  1.1578
 5173WAT     H221399   4.223   7.171   3.862  0.5719  0.0130 -0.8102
 5173WAT    EPW21400   4.297   7.154   3.841 -0.0561  0.1270  0.3299
 5174WAT      O21401   7.419   5.083   6.653 -0.3135 -0.2060 -0.3043
 5174WAT     H121402   7.448   5.007   6.685  1.4172  0.9217  1.0175
 5174WAT     H221403   7.478   5.104   6.593  1.2730  1.6450  1.7175
 5174WAT    EPW21404   7.432   5.075   6.649 -0.0689 -0.2361  0.1887
 5175WAT      O21405   3.601   5.937   5.709 -0.2458  0.0067  0.0040
 5175WAT     H121406   3.671   5.884   5.713  0.7804  1.2912 -0.3716
 5175WAT     H221407   3.631   6.007   5.667 -2.0706  0.1585 -1.1311
 5175WAT    EPW21408   3.616   5.939   5.703  0.0803 -0.2386 -0.0381
 5176WAT      O21409   6.241   4.458   3.032  0.4834  0.3331  0.1116
 5176WAT     H121410   6.273   4.453   3.113 -1.9640 -1.5836  1.1211
 5176WAT     H221411   6.199   4.534   3.031 -0.8215 -0.3253  1.2880
 5176WAT    EPW21412   6.240   4.469   3.044 -0.4554 -0.2739 -0.4634
 5177WAT      O21413   0.535   3.075   5.443 -0.3812 -0.9671 -0.4064
 5177WAT     H121414   0.480   3.031   5.392  0.6460 -1.4216 -1.1745
 5177WAT     H221415   0.594   3.107   5.387 -0.7182  0.8416  0.2154
 5177WAT    EPW21416   0.536   3.073   5.427  0.1302  0.4510  0.3059
 5178WAT      O21417   1.690   6.385   1.865 -0.1556  0.0954  0.1593
 5178WAT     H121418   1.635   6.421   1.922 -0.0263  1.2105 -0.3992
 5178WAT     H221419   1.764   6.376   1.912 -0.5596 -0.6412  0.6686
 5178WAT    EPW21420   1.693   6.389   1.880 -0.0994  0.3848  0.0179
 5179WAT      O21421   4.167   3.681   6.510 -0.0862 -0.7217 -0.1974
 5179WAT     H121422   4.114   3.713   6.572 -1.0155  0.7480 -1.6447
 5179WAT     H221423   4.122   3.612   6.479 -0.7661 -0.0260 -0.8057
 5179WAT    EPW21424   4.152   3.676   6.514 -0.1479  0.6561  0.2145
 5180WAT      O21425   0.207   4.275   0.376  0.0620 -0.4996  0.5813
 5180WAT     H121426   0.125   4.260   0.351  0.0796 -0.5854  0.5773
 5180WAT     H221427   0.251   4.206   0.346  0.3051 -0.0082 -0.2493
 5180WAT    EPW21428   0.202   4.263   0.368 -0.0123 -0.0419 -0.1410
 5181WAT      O21429   2.512   2.859   3.374 -0.3650  0.0137  0.4787
 5181WAT     H121430   2.592   2.892   3.382  0.6024 -2.0352  0.0259
 5181WAT     H221431   2.463   2.928   3.352  1.1993  1.3640  1.0498
 5181WAT    EPW21432   2.517   2.874   3.372 -0.0954  0.5875  0.8187
 5182WAT      O21433   1.763   5.294   4.699  0.0899 -0.2390  0.2570
 5182WAT     H121434   1.792   5.225   4.655  2.4279  0.7325  0.0913
 5182WAT     H221435   1.830   5.314   4.752 -0.7760  1.4695  0.7857
 5182WAT    EPW21436   1.777   5.287   4.701  0.5697  0.2336 -0.2577
 5183WAT      O21437   4.506   2.943   5.666  0.2481 -0.8917  0.0322
 5183WAT     H121438   4.460   2.909   5.601 -0.3268  0.2857 -0.2068
 5183WAT     H221439   4.571   2.985   5.626 -0.0357 -0.2703  0.2176
 5183WAT    EPW21440   4.509   2.944   5.651 -0.2121  0.0547 -0.3815
 5184WAT      O21441   5.928   5.070   5.130 -0.1584 -0.0899 -0.3889
 5184WAT     H121442   5.880   5.109   5.192  1.7999  1.7779  0.0604
 5184WAT     H221443   5.887   5.091   5.056 -1.1765 -0.3149  0.0857
 5184WAT    EPW21444   5.915   5.079   5.129  0.0416 -0.2940 -0.0297
 5185WAT      O21445   0.356   6.364   2.247  0.7201  0.5368 -0.1165
 5185WAT     H121446   0.374   6.296   2.195 -0.4928  0.7136 -0.8174
 5185WAT     H221447   0.284   6.339   2.290  1.2098  0.7374  0.8654
 5185WAT    EPW21448   0.348   6.350   2.246 -0.2778  0.6637 -0.2038
 5186WAT      O21449   4.282   0.805   6.474  0.2170 -0.4743 -0.2959
 5186WAT     H121450   4.205   0.800   6.515  0.5671 -0.7814  0.3372
 5186WAT     H221451   4.263   0.847   6.400 -0.9248 -2.1820 -1.0494
 5186WAT    EPW21452   4.268   0.810   6.469 -0.3957  0.2271 -0.0113
 5187WAT      O21453   5.274   6.724   6.580  0.1769  0.9247 -0.2881
 5187WAT     H121454   5.278   6.772   6.653 -0.9646  1.6208 -0.6604
 5187WAT     H221455   5.313   6.775   6.520 -0.2574  1.0205 -0.4927
 5187WAT    EPW21456   5.280   6.739   6.582 -0.0957  0.2468 -0.5088
 5188WAT      O21457   4.872   7.311   4.350 -0.4920  1.0666 -0.2653
 5188WAT     H121458   4.819   7.350   4.408 -0.4180  0.2887  0.3454
 5188WAT     H221459   4.856   7.354   4.276 -0.4016  2.2691  0.3762
 5188WAT    EPW21460   4.862   7.323   4.348 -0.4360 -0.7600 -0.4292
 5189WAT      O21461   2.804   3.079   7.082  0.0984  0.0584  0.4931
 5189WAT     H121462   2.764   3.071   7.159  1.0940 -1.0043  0.9301
 5189WAT     H221463   2.781   3.006   7.039  0.6477 -0.0209  0.3243
 5189WAT    EPW21464   2.795   3.067   7.087 -0.2635  0.4293  0.6400
 5190WAT      O21465   4.219   6.731   3.570 -0.1601 -0.1061  0.0392
 5190WAT     H121466   4.218   6.690   3.492 -2.3891 -0.4950  0.2291
 5190WAT     H221467   4.186   6.672   3.625  1.6897  0.0414  1.4173
 5190WAT    EPW21468   4.214   6.716   3.566  0.0354  0.2448 -0.0788
 5191WAT      O21469   2.435   2.375   4.470 -0.5079  0.2677 -0.0935
 5191WAT     H121470   2.351   2.353   4.466 -1.3188  2.7319  1.1339
 5191WAT     H221471   2.449   2.421   4.397 -0.3209  0.1126 -0.1565
 5191WAT    EPW21472   2.425   2.379   4.459  0.0470 -0.8841 -0.2792
 5192WAT      O21473   2.251   1.567   7.220  0.2814 -0.1486 -0.0286
 5192WAT     H121474   2.312   1.588   7.278  0.5169 -3.2651  1.0493
 5192WAT     H221475   2.241   1.481   7.232 -2.1400 -0.2875 -2.2792
 5192WAT    EPW21476   2.258   1.557   7.231 -0.3725 -0.6971  0.3654
 5193WAT      O21477   5.896   1.743   0.433  0.3951  0.5593 -0.6791
 5193WAT     H121478   5.863   1.807   0.483  0.9851  1.0050 -0.8535
 5193WAT     H221479   5.977   1.733   0.462  0.9599  1.2478 -1.9307
 5193WAT    EPW21480   5.903   1.751   0.445 -0.8691 -0.1886  0.0103
 5194WAT      O21481   2.187   1.673   3.439  0.1408  0.4303 -0.4688
 5194WAT     H121482   2.217   1.690   3.519 -1.5010  1.6706 -0.0519
 5194WAT     H221483   2.120   1.618   3.455  1.0692 -0.9683 -1.2063
 5194WAT    EPW21484   2.181   1.667   3.453 -0.1046 -0.4033  0.3034
 5195WAT      O21485   7.023   7.156   4.825  0.0262  0.0054  0.5526
 5195WAT     H121486   6.984   7.081   4.806 -1.2561  0.5600  0.8370
 5195WAT     H221487   7.103   7.133   4.850 -0.3926 -1.2646  0.7535
 5195WAT    EPW21488   7.029   7.142   4.826 -0.3181  0.6405  0.6784
 5196WAT      O21489   4.512   1.640   2.863  0.0464  0.0026  0.0277
 5196WAT     H121490   4.443   1.638   2.810  0.0421 -0.7169  0.0608
 5196WAT     H221491   4.536   1.724   2.861 -0.1602  0.0501 -0.8449
 5196WAT    EPW21492   4.505   1.652   2.855  0.2819  0.5135  0.1751
 5197WAT      O21493   0.657   6.413   4.702  0.4843 -0.1608  0.5152
 5197WAT     H121494   0.603   6.482   4.705  0.2799 -0.2161 -1.0472
 5197WAT     H221495   0.697   6.415   4.779  0.9061  2.0522  0.2959
 5197WAT    EPW21496   0.655   6.424   4.714  0.4562  1.0236  0.4011
 5198WAT      O21497   2.276   7.075   4.996 -0.2717 -0.2714  0.1584
 5198WAT     H121498   2.223   7.037   4.939 -0.4480 -0.1391  0.2293
 5198WAT     H221499   2.300   7.149   4.956 -0.8864  0.1224  0.4933
 5198WAT    EPW21500   2.271   7.080   4.982 -0.3197  0.3082 -0.0597
 5199WAT      O21501   1.399   2.107   0.375  0.1797 -0.5685  0.0856
 5199WAT     H121502   1.450   2.169   0.409 -0.2495 -1.1460  1.9005
 5199WAT     H221503   1.401   2.044   0.436 -0.1268 -1.9539 -1.2764
 5199WAT    EPW21504   1.407   2.107   0.389 -0.7017  0.5656 -0.2391
 5200WAT      O21505   2.402   3.177   0.651  0.2767 -0.3351  0.2188
 5200WAT     H121506   2.457   3.131   0.602 -0.4714 -0.6227 -0.3620
 5200WAT     H221507   2.331   3.127   0.656  0.1180 -0.0500  1.1075
 5200WAT    EPW21508   2.400   3.163   0.645 -0.0366  0.1282  0.6727
 5201WAT      O21509   3.605   0.898   6.057 -0.1617 -0.0331 -0.6861
 5201WAT     H121510   3.556   0.969   6.042  0.0964  0.3456  0.1819
 5201WAT     H221511   3.666   0.902   5.995 -0.1330  0.5198 -0.6259
 5201WAT    EPW21512   3.607   0.909   6.045  0.0362 -0.5037 -1.1068
 5202WAT      O21513   6.778   6.999   6.580  0.8468  0.0717  0.0366
 5202WAT     H121514   6.767   7.029   6.499  0.1233 -1.7817 -0.6043
 5202WAT     H221515   6.809   7.068   6.623 -2.4696  2.3508 -0.8322
 5202WAT    EPW21516   6.781   7.014   6.574  0.3856 -0.9313 -0.0223
 5203WAT      O21517   0.434   7.274   5.045  0.2165 -0.4189 -0.5839
 5203WAT     H121518   0.479   7.330   4.996  0.0927 -1.1314 -1.5373
 5203WAT     H221519   0.432   7.312   5.123  1.2659  0.2806 -0.8805
 5203WAT    EPW21520   0.440   7.288   5.049 -0.2248  0.5173 -0.2843
 5204WAT      O21521   4.825   5.122   7.548  0.5644  0.1366  0.7420
 5204WAT     H121522   4.876   5.130   7.478  0.1131 -0.1395  0.3795
 5204WAT     H221523   4.764   5.183   7.536 -0.8993 -1.4646 -0.3136
 5204WAT    EPW21524   4.824   5.133   7.536  0.1643 -0.3995 -0.1316
 5205WAT      O21525   1.026   1.225   1.008 -0.4332 -0.2443  0.0631
 5205WAT     H121526   1.068   1.244   0.934 -0.3267  1.4685  0.5160
 5205WAT     H221527   0.944   1.249   0.993 -0.4546 -0.0858  0.4104
 5205WAT    EPW21528   1.020   1.232   0.995 -0.0203 -0.8321 -0.0566
 5206WAT      O21529   3.957   3.950   5.952  0.2009 -1.1392 -0.0537
 5206WAT     H121530   3.998   3.963   5.876 -0.9566 -0.5114 -0.5864
 5206WAT     H221531   3.878   3.921   5.929  0.3352 -2.4009  0.9576
 5206WAT    EPW21532   3.952   3.947   5.937 -0.2905 -0.0537 -0.4890
 5207WAT      O21533   6.390   6.429   6.921  0.8731 -0.7789 -0.0045
 5207WAT     H121534   6.456   6.377   6.894  0.4746 -1.1679 -0.2435
 5207WAT     H221535   6.329   6.372   6.947  1.0386 -0.4173  1.2359
 5207WAT    EPW21536   6.391   6.413   6.921 -0.5772  0.1302 -0.3959
 5208WAT      O21537   4.697   5.321   2.621  0.1221  0.4334 -0.3959
 5208WAT     H121538   4.738   5.346   2.694 -2.0554  0.6858  0.8090
 5208WAT     H221539   4.669   5.240   2.640 -2.5560  1.3659  0.0868
 5208WAT    EPW21540   4.699   5.313   2.635  0.2737 -0.5368  0.4334
 5209WAT      O21541   3.966   1.608   6.349  0.0934 -0.2119 -0.1993
 5209WAT     H121542   3.909   1.549   6.319 -0.0702  0.0843 -0.4730
 5209WAT     H221543   4.017   1.624   6.280  0.4720 -0.4292  0.0252
 5209WAT    EPW21544   3.965   1.601   6.334 -0.0041  0.0039  0.6260
 5210WAT      O21545   7.260   6.385   4.111 -0.2842  0.2107 -0.6348
 5210WAT     H121546   7.208   6.326   4.074 -0.5428  1.0161 -1.5947
 5210WAT     H221547   7.207   6.453   4.126 -0.2704 -0.1881  1.5658
 5210WAT    EPW21548   7.245   6.386   4.107 -0.1634  0.0108 -0.5600
 5211WAT      O21549   7.650   1.104   2.926  0.2425  0.2572 -0.4621
 5211WAT     H121550   7.618   1.070   2.852 -1.7656  0.4213  0.2748
 5211WAT     H221551   7.601   1.175   2.939  2.7268  2.1622 -0.6453
 5211WAT    EPW21552   7.638   1.109   2.917 -0.3491  0.0329 -0.0511
 5212WAT      O21553   0.011   5.335   6.801 -0.2054 -0.4286 -0.0958
 5212WAT     H121554   0.082   5.306   6.843 -0.2654  1.3390  1.3586
 5212WAT     H221555  -0.055   5.297   6.844 -0.2140 -1.4143 -0.9241
 5212WAT    EPW21556   0.012   5.325   6.813  0.0551  0.3483  0.2197
 5213WAT      O21557   3.636   7.313   3.904 -0.4222  0.3386 -0.4044
 5213WAT     H121558   3.662   7.230   3.911 -0.8250  0.0861 -1.6517
 5213WAT     H221559   3.549   7.307   3.905 -0.4667  0.8884  0.7941
 5213WAT    EPW21560   3.627   7.300   3.905 -0.2771  0.0057  0.1816
 5214WAT      O21561   1.094   7.190   2.897 -0.3198  0.6984  0.2605
 5214WAT     H121562   1.163   7.156   2.857 -0.7584 -1.1547  0.9650
 5214WAT     H221563   1.126   7.260   2.939  1.6701 -1.3588  2.3921
 5214WAT    EPW21564   1.109   7.196   2.897  0.0516 -0.9004 -0.3390
 5215WAT      O21565   5.056   1.779   2.360 -0.3008  0.3807 -0.4683
 5215WAT     H121566   5.127   1.761   2.407  0.7915  2.1648 -1.3020
 5215WAT     H221567   4.994   1.792   2.421 -0.3613 -2.5609  0.2235
 5215WAT    EPW21568   5.057   1.779   2.376 -0.0359  0.0740  0.6471
 5216WAT      O21569   0.331   6.624   6.470  0.7548 -0.1573  0.0360
 5216WAT     H121570   0.291   6.701   6.462  0.2380 -0.3824  0.4257
 5216WAT     H221571   0.286   6.572   6.417 -1.0770 -1.0275  2.3107
 5216WAT    EPW21572   0.318   6.628   6.461  0.8713  0.3415  0.3985
 5217WAT      O21573   3.595   4.922   6.176  0.0062  0.0194  0.1104
 5217WAT     H121574   3.634   4.844   6.183 -0.1022 -0.0553 -0.0967
 5217WAT     H221575   3.659   4.978   6.191  0.2628 -0.0989 -0.5092
 5217WAT    EPW21576   3.610   4.918   6.179 -0.4009 -0.1134  0.7706
 5218WAT      O21577   6.324   4.764   7.176  0.0072  0.2913 -0.1415
 5218WAT     H121578   6.238   4.777   7.178  0.2304  1.8636  0.6157
 5218WAT     H221579   6.333   4.684   7.209 -1.1795 -0.0869 -0.6751
 5218WAT    EPW21580   6.313   4.754   7.181 -0.5232 -0.2533 -0.3608
 5219WAT      O21581   3.905   2.767   1.945 -0.5022 -0.0020  0.1651
 5219WAT     H121582   3.962   2.727   1.997  0.5230  3.1493  1.6837
 5219WAT     H221583   3.948   2.838   1.918 -2.2852  0.3188 -2.1404
 5219WAT    EPW21584   3.920   2.772   1.948 -0.6524 -0.2049 -0.1405
 5220WAT      O21585   2.522   3.065   6.279  0.2770  0.0857 -0.8269
 5220WAT     H121586   2.596   3.061   6.234  0.5613 -1.9024 -0.2516
 5220WAT     H221587   2.478   3.129   6.239  1.3908 -0.1435 -2.5307
 5220WAT    EPW21588   2.527   3.074   6.266  0.8085 -0.3833  0.4465
 5221WAT      O21589   5.090   0.197   3.544  0.3235  0.1447  0.7468
 5221WAT     H121590   5.082   0.282   3.524  0.2002 -0.4008 -1.9677
 5221WAT     H221591   5.021   0.161   3.504  1.0717 -1.3799  0.7704
 5221WAT    EPW21592   5.078   0.204   3.535 -0.0304  0.0028 -0.6400
 5222WAT      O21593   4.333   6.294   4.806 -0.3241 -0.0140  0.6262
 5222WAT     H121594   4.366   6.231   4.857  0.7978 -0.3353 -0.4338
 5222WAT     H221595   4.401   6.318   4.756 -0.8440  1.7351  0.6857
 5222WAT    EPW21596   4.348   6.288   4.806 -0.4168 -0.0682 -0.2417
 5223WAT      O21597   4.455   1.823   4.251 -0.1749 -0.0005 -0.4444
 5223WAT     H121598   4.541   1.829   4.233 -0.2423 -0.1904 -0.8445
 5223WAT     H221599   4.421   1.790   4.177 -0.5836  0.0112 -0.2627
 5223WAT    EPW21600   4.463   1.819   4.237  0.1531  0.4344  0.2979
 5224WAT      O21601   5.258   6.973   3.904 -0.5040 -0.7753 -0.5704
 5224WAT     H121602   5.222   6.895   3.886 -0.1373 -1.2677  0.6985
 5224WAT     H221603   5.325   6.952   3.957  0.4717  0.2838 -1.3446
 5224WAT    EPW21604   5.263   6.958   3.909 -0.6733 -0.2978 -0.0296
 5225WAT      O21605   4.227   3.245   6.243 -1.0732  0.5698  0.4439
 5225WAT     H121606   4.196   3.325   6.227 -1.4478  0.4000  0.3109
 5225WAT     H221607   4.194   3.226   6.321 -0.5145  0.7748  0.7307
 5225WAT    EPW21608   4.217   3.254   6.252  0.0713  0.5057  0.0993
 5226WAT      O21609   5.072   1.468   4.100 -0.2632  0.4321 -0.2878
 5226WAT     H121610   5.090   1.470   4.015 -2.0351  1.5548 -0.6991
 5226WAT     H221611   5.143   1.504   4.137  0.3595  0.2867 -1.3000
 5226WAT    EPW21612   5.085   1.474   4.093 -0.0046 -0.4301  0.1853
 5227WAT      O21613   1.129   3.228   3.319 -0.3940 -0.2346 -0.0399
 5227WAT     H121614   1.195   3.285   3.314  0.3070 -1.0412 -0.3887
 5227WAT     H221615   1.167   3.156   3.351 -1.4622 -0.2203  1.3641
 5227WAT    EPW21616   1.145   3.226   3.323  0.0571  0.1268 -0.3999
 5228WAT      O21617   1.139   6.228   2.274  0.2836 -0.2070 -0.2058
 5228WAT     H121618   1.124   6.146   2.300  0.2524  0.3085  1.5146
 5228WAT     H221619   1.203   6.220   2.216  1.9152 -1.2765  1.6288
 5228WAT    EPW21620   1.146   6.215   2.269 -0.1707 -0.2919  0.2473
 5229WAT      O21621   5.730   4.369   4.579 -0.0894  0.5507  0.3030
 5229WAT     H121622   5.661   4.325   4.549 -0.5291  1.6546 -0.3663
 5229WAT     H221623   5.791   4.357   4.517 -0.6981  2.0652 -0.6568
 5229WAT    EPW21624   5.729   4.361   4.565 -0.3586 -0.2516 -0.6652
 5230WAT      O21625   3.893   0.547   6.139  0.0790  0.6103 -0.2162
 5230WAT     H121626   3.946   0.547   6.069  0.9329  1.5088  0.4007
 5230WAT     H221627   3.813   0.542   6.104  0.5337 -0.4815 -1.1853
 5230WAT    EPW21628   3.889   0.546   6.123 -0.0716 -0.3815 -0.1007
 5231WAT      O21629   6.624   3.668   6.348  1.3476 -0.0743 -0.1739
 5231WAT     H121630   6.565   3.603   6.351 -0.7737  1.6091  3.9555
 5231WAT     H221631   6.695   3.632   6.383  1.6861 -1.1940 -1.9002
 5231WAT    EPW21632   6.626   3.653   6.354 -0.0945  0.2841  0.0649
 5232WAT      O21633   3.127   6.704   2.105 -0.3611  0.3403 -0.2418
 5232WAT     H121634   3.046   6.673   2.115  1.1507 -3.9717  1.0883
 5232WAT     H221635   3.152   6.723   2.186  0.4621 -0.0079 -0.4012
 5232WAT    EPW21636   3.119   6.702   2.118 -0.1415 -0.2112  0.0761
 5233WAT      O21637   5.797   2.628   0.466 -0.2281  0.4596 -0.1830
 5233WAT     H121638   5.856   2.689   0.447  0.4252 -0.1034 -0.0169
 5233WAT     H221639   5.827   2.593   0.540 -0.5649 -0.0829 -0.2955
 5233WAT    EPW21640   5.811   2.632   0.474 -0.5347  0.2964 -0.3014
 5234WAT      O21641   5.220   6.508   3.549 -0.1848  0.1105  0.4876
 5234WAT     H121642   5.149   6.458   3.541  1.2608 -1.7234 -3.3319
 5234WAT     H221643   5.201   6.579   3.501 -0.0205  0.4146  0.8677
 5234WAT    EPW21644   5.206   6.511   3.541 -0.1468 -0.0216  0.0628
 5235WAT      O21645   0.696   0.366   6.115  0.4044  0.3336  0.4534
 5235WAT     H121646   0.760   0.380   6.172  1.6457 -1.2230 -0.4430
 5235WAT     H221647   0.638   0.317   6.159  0.1296  1.2169  1.0823
 5235WAT    EPW21648   0.697   0.361   6.130  0.3426 -0.3279 -0.2371
 5236WAT      O21649   6.940   1.661   2.972 -0.1021 -0.2362 -0.5580
 5236WAT     H121650   6.908   1.629   3.047 -0.6233  3.4618  1.0045
 5236WAT     H221651   7.025   1.667   2.988  0.0038 -0.8361 -0.8737
 5236WAT    EPW21652   6.948   1.657   2.986 -0.4481  0.1197 -0.0581
 5237WAT      O21653   7.348   4.998   5.231  0.2821 -1.2581 -0.4787
 5237WAT     H121654   7.421   4.969   5.269  1.1881  0.3920 -0.8503
 5237WAT     H221655   7.376   5.033   5.156 -0.5406  1.2631  0.2816
 5237WAT    EPW21656   7.363   4.999   5.226  0.1483 -0.2355  0.7138
 5238WAT      O21657   2.816   0.163   5.550 -0.2491 -0.1749 -0.4785
 5238WAT     H121658   2.752   0.112   5.581 -1.1525  0.0325 -1.9248
 5238WAT     H221659   2.874   0.106   5.519 -0.4006 -0.3479 -0.4455
 5238WAT    EPW21660   2.815   0.147   5.550 -0.1856  0.2667 -0.9621
 5239WAT      O21661   4.414   2.068   1.482 -0.2263  0.1778  0.2646
 5239WAT     H121662   4.369   2.045   1.410  0.1648 -1.5296  0.5208
 5239WAT     H221663   4.494   2.085   1.452 -0.3211  0.4794  0.1755
 5239WAT    EPW21664   4.419   2.067   1.467  0.1964  0.2031  0.9769
 5240WAT      O21665   6.295   6.211   2.849 -0.0476  0.5156 -0.2476
 5240WAT     H121666   6.376   6.225   2.821 -0.2306 -0.7285 -1.4928
 5240WAT     H221667   6.269   6.140   2.805 -1.6532  0.6088  0.4546
 5240WAT    EPW21668   6.303   6.203   2.839  0.2143  0.7575 -0.1492
 5241WAT      O21669   4.002   0.142   4.212 -0.3994 -0.2283 -0.0070
 5241WAT     H121670   4.013   0.198   4.146 -1.1183 -0.0022  0.0532
 5241WAT     H221671   4.059   0.170   4.272  0.9156 -0.9851 -0.8541
 5241WAT    EPW21672   4.012   0.154   4.211 -0.0620 -0.4585 -0.0147
 5242WAT      O21673   0.860   3.483   7.224 -1.0366 -0.1601 -0.0301
 5242WAT     H121674   0.880   3.470   7.140 -2.1728  1.1599 -0.5412
 5242WAT     H221675   0.900   3.558   7.243  0.3186 -1.1077  1.0349
 5242WAT    EPW21676   0.869   3.492   7.214 -0.2080 -0.1375  0.0429
 5243WAT      O21677   6.002   3.304   3.086  0.4433 -0.0500  0.1353
 5243WAT     H121678   6.061   3.244   3.110 -1.0863 -2.4049 -1.4479
 5243WAT     H221679   5.967   3.330   3.161  1.3857 -0.9372  0.9168
 5243WAT    EPW21680   6.005   3.299   3.101  0.2790 -0.6300  0.0713
 5244WAT      O21681   4.453   5.592   0.409 -0.1409  0.0630 -0.1649
 5244WAT     H121682   4.379   5.589   0.454 -0.6948  1.0327 -0.9794
 5244WAT     H221683   4.434   5.641   0.340  0.9551 -0.5989 -0.9741
 5244WAT    EPW21684   4.439   5.599   0.406 -0.3229 -0.2025 -0.2239
 5245WAT      O21685   7.219   7.411   1.471 -0.3219 -0.1740 -0.0454
 5245WAT     H121686   7.147   7.381   1.432  0.9759 -0.4571 -2.4339
 5245WAT     H221687   7.191   7.438   1.549 -2.9336 -0.5303 -0.7731
 5245WAT    EPW21688   7.204   7.411   1.477  0.4944  0.0324 -0.5228
 5246WAT      O21689   4.848   1.319   6.201  0.1588  0.0565  0.3109
 5246WAT     H121690   4.863   1.280   6.277 -2.0640  0.7845  1.2146
 5246WAT     H221691   4.869   1.402   6.215 -1.9707  0.5745  0.8096
 5246WAT    EPW21692   4.853   1.325   6.214  0.1415  0.3357  0.6010
 5247WAT      O21693   3.273   5.984   0.247 -0.2193 -0.1508 -0.4222
 5247WAT     H121694   3.226   6.016   0.313  0.3917 -0.8404  0.3626
 5247WAT     H221695   3.354   6.006   0.266  0.1899 -1.8102 -0.0300
 5247WAT    EPW21696   3.278   5.992   0.259 -0.6723  0.1677 -0.2538
 5248WAT      O21697   5.099   5.502   1.340  0.1669  0.3983 -0.1356
 5248WAT     H121698   5.130   5.579   1.366 -2.3262  1.9357 -1.3856
 5248WAT     H221699   5.146   5.445   1.386  1.7813  2.6500  1.2128
 5248WAT    EPW21700   5.110   5.505   1.350 -0.1108  0.4496 -0.2225
 5249WAT      O21701   3.923   1.688   2.903 -0.6795 -0.2171 -0.5867
 5249WAT     H121702   3.914   1.711   2.987  0.1974 -0.5632 -0.3953
 5249WAT     H221703   3.846   1.651   2.884  0.0860 -2.7853  0.9106
 5249WAT    EPW21704   3.910   1.686   2.913  0.2296 -0.7735 -0.7041
 5250WAT      O21705   2.392   4.067   5.468 -0.2422 -0.2132  0.4399
 5250WAT     H121706   2.380   4.068   5.554  0.5877  2.3164  0.5898
 5250WAT     H221707   2.461   4.119   5.456 -0.8979  0.2249 -1.8315
 5250WAT    EPW21708   2.400   4.075   5.479 -0.0718  0.1763 -0.2866
 5251WAT      O21709   5.949   2.999   6.476 -0.5125 -0.1704 -0.4433
 5251WAT     H121710   6.022   2.968   6.513 -0.3801  1.0540  0.3819
 5251WAT     H221711   5.949   2.963   6.397  0.6957 -0.6336 -0.2515
 5251WAT    EPW21712   5.960   2.989   6.470 -0.0986  0.3702 -0.3785
 5252WAT      O21713   5.135   3.374   0.437  0.6998 -0.1841 -0.4411
 5252WAT     H121714   5.204   3.427   0.433 -0.6554  1.7066  0.1105
 5252WAT     H221715   5.115   3.361   0.353  0.9623  0.2824 -0.5804
 5252WAT    EPW21716   5.143   3.380   0.424  0.9094  0.0213  0.0775
 5253WAT      O21717   4.406   7.193   5.909 -0.3281 -0.1947 -0.6939
 5253WAT     H121718   4.340   7.144   5.878 -0.5539  0.2732 -0.9619
 5253WAT     H221719   4.462   7.196   5.842 -0.9960  1.1491 -1.2355
 5253WAT    EPW21720   4.405   7.186   5.894  0.1904  0.0808  0.0946
 5254WAT      O21721   6.253   5.451   6.075 -0.0047 -0.4220 -0.6052
 5254WAT     H121722   6.297   5.438   6.001 -1.3209 -2.5683 -1.1210
 5254WAT     H221723   6.192   5.510   6.053  0.6354  0.2056 -0.7341
 5254WAT    EPW21724   6.250   5.458   6.061 -0.3879 -0.5742 -0.2134
 5255WAT      O21725   0.827   1.882   6.627 -0.0240  0.2237 -0.3759
 5255WAT     H121726   0.750   1.905   6.592 -0.1621  2.6581  1.2718
 5255WAT     H221727   0.858   1.957   6.659  1.1710 -1.3315  2.4855
 5255WAT    EPW21728   0.820   1.896   6.627 -0.4263 -0.2210 -0.3807
 5256WAT      O21729   3.705   5.561   0.419 -0.2202  0.3768  0.0967
 5256WAT     H121730   3.650   5.589   0.481 -1.0233  2.9625 -1.6170
 5256WAT     H221731   3.675   5.481   0.400 -1.1082  0.2861  1.7236
 5256WAT    EPW21732   3.692   5.553   0.425  0.4189 -0.3214 -0.3507
 5257WAT      O21733   5.471   3.114   5.879  0.4722 -0.4152  0.6529
 5257WAT     H121734   5.436   3.113   5.959 -0.3811  1.0384  0.3339
 5257WAT     H221735   5.432   3.047   5.839 -0.9704  0.3222  0.7423
 5257WAT    EPW21736   5.460   3.104   5.885 -0.2854  0.0541  0.4352
 5258WAT      O21737   4.984   0.312   6.959  0.3603 -0.2840  0.1306
 5258WAT     H121738   4.958   0.231   6.942 -0.0808 -0.0984 -0.1068
 5258WAT     H221739   5.003   0.310   7.044  2.0158 -1.0657 -0.2266
 5258WAT    EPW21740   4.983   0.300   6.969 -0.2319 -0.0858 -0.1042
 5259WAT      O21741   7.029   7.101   6.250 -0.1023 -0.3074 -0.2900
 5259WAT     H121742   6.988   7.093   6.173  0.0163  0.3466 -0.4249
 5259WAT     H221743   7.056   7.019   6.267  1.9704 -0.1221 -2.1416
 5259WAT    EPW21744   7.027   7.088   6.241  0.3617 -0.3193 -0.3491
 5260WAT      O21745   0.308   4.217   3.758  0.0663 -0.2451  0.0064
 5260WAT     H121746   0.261   4.223   3.831 -0.2198  0.0611 -0.2018
 5260WAT     H221747   0.327   4.132   3.753 -1.6705 -0.6225 -0.6665
 5260WAT    EPW21748   0.304   4.206   3.768 -0.7467  0.0785  0.3679
 5261WAT      O21749   1.142   2.232   0.354 -0.4659 -0.2693  0.0882
 5261WAT     H121750   1.227   2.211   0.354  0.3733  2.6570  0.3886
 5261WAT     H221751   1.108   2.183   0.418  1.2152 -0.7441  0.6638
 5261WAT    EPW21752   1.150   2.222   0.363 -0.4506  0.0684  1.0116
 5262WAT      O21753   6.205   6.361   1.298 -0.1990  0.0281  0.0900
 5262WAT     H121754   6.185   6.279   1.279 -0.2995  0.1283 -0.2458
 5262WAT     H221755   6.241   6.391   1.225  1.0132 -0.0871  0.6138
 5262WAT    EPW21756   6.207   6.353   1.284 -0.0172 -0.0683  0.1151
 5263WAT      O21757   1.584   6.120   0.644  0.1252  0.3263 -0.0273
 5263WAT     H121758   1.591   6.034   0.630 -4.2206 -0.0772 -1.1886
 5263WAT     H221759   1.591   6.154   0.564 -0.0338  0.8562  0.1802
 5263WAT    EPW21760   1.586   6.112   0.630 -0.1845  0.1131  0.0627
 5264WAT      O21761   5.215   1.702   2.011 -0.6016 -0.7417  0.9249
 5264WAT     H121762   5.128   1.696   2.021 -0.8473 -2.2825 -1.4013
 5264WAT     H221763   5.230   1.658   1.937  2.0262  0.7193  0.4904
 5264WAT    EPW21764   5.204   1.694   2.002  0.1615 -0.1771 -0.2114
 5265WAT      O21765   7.605   0.591   7.198  0.1076 -0.4853 -0.2842
 5265WAT     H121766   7.569   0.549   7.265 -0.1530 -0.1527 -0.2079
 5265WAT     H221767   7.687   0.607   7.224  0.1530 -0.7852 -0.2435
 5265WAT    EPW21768   7.612   0.587   7.212 -0.3615 -0.3213  0.0491
 5266WAT      O21769   1.735   5.252   5.606  0.0693 -0.2883 -0.0324
 5266WAT     H121770   1.766   5.173   5.627  0.5249  0.0456  0.6047
 5266WAT     H221771   1.718   5.288   5.684 -0.5916  0.0656 -0.3361
 5266WAT    EPW21772   1.737   5.246   5.621 -0.4852 -0.1122  0.5547
 5267WAT      O21773   2.983   6.114   2.449 -0.2493 -0.4590  0.0834
 5267WAT     H121774   2.931   6.092   2.382  0.2427  0.1580 -0.5087
 5267WAT     H221775   3.039   6.048   2.453  0.0704 -0.2310 -0.4851
 5267WAT    EPW21776   2.983   6.101   2.439  0.2761 -0.2191 -0.2225
 5268WAT      O21777   6.802   0.165   4.092  0.2004  0.4068  0.5277
 5268WAT     H121778   6.817   0.090   4.050  0.3367  0.8629 -0.2496
 5268WAT     H221779   6.715   0.171   4.092  0.2254  1.4128 -1.5425
 5268WAT    EPW21780   6.791   0.155   4.086 -0.1341  0.5007 -0.1384
 5269WAT      O21781   7.448   0.853   3.151 -0.4188 -0.2072  0.3745
 5269WAT     H121782   7.440   0.938   3.169 -1.2381 -0.2156  0.0958
 5269WAT     H221783   7.434   0.814   3.228 -1.9621 -0.1605  0.1451
 5269WAT    EPW21784   7.445   0.859   3.165  0.1316 -0.1320 -0.0763
 5270WAT      O21785   5.461   1.945   6.184 -0.0580  0.3709 -0.7042
 5270WAT     H121786   5.456   2.011   6.241 -1.3835 -0.8858  0.7161
 5270WAT     H221787   5.536   1.960   6.142  1.4364  0.9163  1.9321
 5270WAT    EPW21788   5.471   1.957   6.186  0.6005 -0.0990 -0.2607
 5271WAT      O21789   7.461   0.391   1.064  0.9954  0.4082  0.4270
 5271WAT     H121790   7.457   0.414   0.980  1.4197 -0.4766  0.1513
 5271WAT     H221791   7.460   0.304   1.062 -0.1677  0.3653  1.4118
 5271WAT    EPW21792   7.460   0.381   1.051 -0.1540  0.3403 -0.2077
 5272WAT      O21793   6.161   2.122   3.760  0.1551 -0.4401  0.2680
 5272WAT     H121794   6.149   2.125   3.674 -0.1787 -0.0697  0.3239
 5272WAT     H221795   6.225   2.064   3.770 -2.3497 -3.4447  0.0731
 5272WAT    EPW21796   6.169   2.114   3.749  0.2179 -0.4349 -0.3769
 5273WAT      O21797   5.638   2.804   0.612  0.0168 -0.2960 -0.1995
 5273WAT     H121798   5.659   2.802   0.696  0.4921  0.2893 -0.2958
 5273WAT     H221799   5.685   2.739   0.578  0.1136 -0.2935 -0.0727
 5273WAT    EPW21800   5.648   2.795   0.619 -0.3675  0.0223  0.1083
 5274WAT      O21801   1.416   4.114   6.768 -0.1941 -0.1829  0.5253
 5274WAT     H121802   1.401   4.031   6.745 -0.8542  0.7070 -2.7646
 5274WAT     H221803   1.336   4.146   6.780  0.0161  0.1846  0.9481
 5274WAT    EPW21804   1.402   4.107   6.766  0.2713  0.5797  0.1419
 5275WAT      O21805   2.551   1.942   0.140 -0.2607 -0.9248  0.1031
 5275WAT     H121806   2.578   1.862   0.160  0.1360 -0.8861 -0.2586
 5275WAT     H221807   2.471   1.947   0.176  0.3508 -0.9101  1.5321
 5275WAT    EPW21808   2.543   1.931   0.149  0.2276  0.1393 -0.4090
 5276WAT      O21809   1.005   1.523   1.522  0.2383 -0.3732 -0.2777
 5276WAT     H121810   1.008   1.438   1.542  0.1927  0.0074  1.4656
 5276WAT     H221811   1.088   1.548   1.527  0.1355 -0.1149  0.1200
 5276WAT    EPW21812   1.018   1.514   1.526  0.3239 -0.5151  0.2906
 5277WAT      O21813   6.039   0.448   4.662 -0.0197  0.1379  0.1515
 5277WAT     H121814   6.046   0.507   4.599 -0.9327  1.0503  0.8636
 5277WAT     H221815   5.994   0.383   4.625  1.2860 -0.2832 -0.7382
 5277WAT    EPW21816   6.033   0.447   4.648 -0.0949  0.2582  0.6174
 5278WAT      O21817   3.623   4.791   0.547 -0.2293 -0.2556  0.1405
 5278WAT     H121818   3.641   4.763   0.466  1.6937  1.0008  0.0648
 5278WAT     H221819   3.662   4.732   0.598  0.5344  0.1493  0.0562
 5278WAT    EPW21820   3.632   4.778   0.543  0.2332 -0.5395  0.5193
 5279WAT      O21821   5.936   4.598   3.314 -0.0530 -0.0965 -0.4706
 5279WAT     H121822   5.863   4.609   3.361  0.7816 -1.8135  1.3924
 5279WAT     H221823   5.981   4.539   3.360  2.1847  0.3312 -1.9623
 5279WAT    EPW21824   5.932   4.591   3.328  0.2780  0.1586  0.5847
 5280WAT      O21825   4.105   6.526   4.584  0.3125 -0.3472 -0.0036
 5280WAT     H121826   4.038   6.519   4.639  1.1409 -2.7681  0.8316
 5280WAT     H221827   4.175   6.521   4.636  1.1553  0.6643 -0.9870
 5280WAT    EPW21828   4.106   6.524   4.600  0.2874  0.4908 -0.0708
 5281WAT      O21829   5.665   1.472   2.452 -0.6173  0.1983  0.1392
 5281WAT     H121830   5.665   1.554   2.423  1.5504  0.1020 -0.3141
 5281WAT     H221831   5.668   1.481   2.539 -2.1469  0.5398  0.1815
 5281WAT    EPW21832   5.665   1.485   2.461 -0.2511  0.1138  0.6662
 5282WAT      O21833   7.416   2.436   3.032 -0.6898  0.0866 -0.4139
 5282WAT     H121834   7.436   2.400   2.955 -0.8777  0.2573 -0.5456
 5282WAT     H221835   7.336   2.404   3.049 -1.2533  1.1106 -0.9639
 5282WAT    EPW21836   7.407   2.426   3.023  0.5282  0.1851 -0.3532
 5283WAT      O21837   5.324   7.478   4.194 -0.9563  0.1897 -0.1827
 5283WAT     H121838   5.399   7.438   4.211 -0.8122  0.9046  0.9281
 5283WAT     H221839   5.279   7.418   4.149  0.6183  0.0874 -1.7521
 5283WAT    EPW21840   5.328   7.463   4.190  0.6408  0.3394 -0.5239
 5284WAT      O21841   2.117   4.108   7.467  1.0660 -0.6154  0.8757
 5284WAT     H121842   2.110   4.022   7.455  0.3761 -0.6359  1.3357
 5284WAT     H221843   2.110   4.141   7.386 -3.5913 -0.7333  0.9599
 5284WAT    EPW21844   2.115   4.100   7.453  0.1984  0.4058  0.2536
 5285WAT      O21845   4.486   4.300   1.354 -0.0991 -0.4886 -0.0750
 5285WAT     H121846   4.520   4.241   1.299 -0.3497 -0.3476 -0.3810
 5285WAT     H221847   4.504   4.267   1.433 -0.5996 -1.1812 -0.2407
 5285WAT    EPW21848   4.494   4.286   1.358  0.3266  0.1166  0.7873
 5286WAT      O21849   7.238   6.018   1.086  0.0981  0.1305  0.0345
 5286WAT     H121850   7.296   5.977   1.036  0.5260  0.1635  0.4962
 5286WAT     H221851   7.207   6.082   1.034  0.1143 -0.1906 -0.3707
 5286WAT    EPW21852   7.242   6.022   1.071 -0.0012  0.0457  0.1209
 5287WAT      O21853   1.868   4.580   4.274  0.0988 -0.4421 -0.9039
 5287WAT     H121854   1.788   4.599   4.304 -0.2870 -0.4345 -1.8803
 5287WAT     H221855   1.916   4.647   4.300 -0.1702 -0.5327 -0.1458
 5287WAT    EPW21856   1.863   4.593   4.282  0.3067 -0.1111 -0.0447
 5288WAT      O21857   6.112   5.615   7.012 -0.2376 -0.4610 -0.9583
 5288WAT     H121858   6.054   5.574   7.062  0.9036 -0.3400  0.5508
 5288WAT     H221859   6.157   5.550   6.975  0.4019 -0.5790  0.0059
 5288WAT    EPW21860   6.110   5.600   7.014 -0.1154  0.6003  0.2572
 5289WAT      O21861   0.326   6.203   3.814  0.1661  0.1494  0.1446
 5289WAT     H121862   0.241   6.207   3.796 -0.0099 -1.0904  0.6081
 5289WAT     H221863   0.351   6.129   3.775  1.3997  1.3038 -1.3844
 5289WAT    EPW21864   0.317   6.193   3.805 -0.6042 -0.1445 -0.4682
 5290WAT      O21865   1.976   4.614   1.553  0.3530  0.3667  0.2451
 5290WAT     H121866   1.950   4.694   1.575 -0.2448 -0.1877  1.6232
 5290WAT     H221867   2.043   4.599   1.606 -0.0918 -0.3691  0.6163
 5290WAT    EPW21868   1.982   4.623   1.564  0.5238  0.2408  0.7648
 5291WAT      O21869   3.124   3.430   6.468  1.0078  0.0520 -0.6799
 5291WAT     H121870   3.160   3.465   6.397  1.6666  1.0490  0.1313
 5291WAT     H221871   3.062   3.487   6.490  0.8684 -0.2074 -0.3968
 5291WAT    EPW21872   3.120   3.443   6.461 -0.4422 -0.0188  0.3060
 5292WAT      O21873   5.669   5.167   4.303 -0.0976  0.0502  0.6617
 5292WAT     H121874   5.750   5.187   4.328 -0.3728  0.1166  1.5058
 5292WAT     H221875   5.681   5.103   4.245  0.6666  1.3288 -0.6518
 5292WAT    EPW21876   5.683   5.160   4.298 -0.0301  0.3440 -0.3743
 5293WAT      O21877   0.940   4.572   0.673 -0.0918 -0.1671 -0.1956
 5293WAT     H121878   0.904   4.594   0.749  2.3915  0.3646  0.9112
 5293WAT     H221879   0.917   4.488   0.662 -0.1028 -0.3868  1.3809
 5293WAT    EPW21880   0.931   4.563   0.682 -0.0966 -0.3604 -0.3931
 5294WAT      O21881   6.097   2.408   2.341 -0.0291 -0.3007  0.4057
 5294WAT     H121882   6.116   2.491   2.320  0.1337 -0.4776 -0.1702
 5294WAT     H221883   6.031   2.416   2.397 -0.8388  0.1906 -0.5731
 5294WAT    EPW21884   6.090   2.422   2.346 -0.5626 -0.0179 -0.1526
 5295WAT      O21885   2.070   6.694   3.298 -0.1375 -0.5167  0.1521
 5295WAT     H121886   2.027   6.681   3.223 -0.1948 -0.8784  0.2481
 5295WAT     H221887   2.150   6.716   3.272 -0.7919  1.8860 -0.0871
 5295WAT    EPW21888   2.076   6.696   3.283 -0.1098 -0.4041 -0.0375
 5296WAT      O21889   2.612   4.593   2.986 -0.7896 -0.0833 -0.5351
 5296WAT     H121890   2.609   4.673   2.952  0.5542  0.1632 -0.1467
 5296WAT     H221891   2.676   4.554   2.941  1.3273  0.3772  1.8394
 5296WAT    EPW21892   2.621   4.599   2.974 -0.5202  0.2054  0.1663
 5297WAT      O21893   4.776   1.068   2.366  0.2557  0.8758  0.0050
 5297WAT     H121894   4.700   1.112   2.363  0.6040  1.4439 -0.7994
 5297WAT     H221895   4.815   1.089   2.291  1.2956  0.7282  0.4834
 5297WAT    EPW21896   4.770   1.077   2.355 -0.0613 -0.7377  0.4132
 5298WAT      O21897   5.418   5.047   1.538 -0.0386  0.2644 -0.2470
 5298WAT     H121898   5.449   5.006   1.608 -0.9185 -1.1121 -0.6238
 5298WAT     H221899   5.436   5.131   1.553 -0.3497  0.0242  1.6971
 5298WAT    EPW21900   5.425   5.053   1.550 -0.1173  0.5074 -0.3839
 5299WAT      O21901   6.465   7.429   3.806 -0.0699 -0.1863 -0.2737
 5299WAT     H121902   6.475   7.386   3.881 -0.7488  0.9289  0.4821
 5299WAT     H221903   6.435   7.507   3.830 -3.4143 -0.7911 -1.8085
 5299WAT    EPW21904   6.462   7.434   3.821  0.5748 -0.0955  0.1893
 5300WAT      O21905   2.301   4.657   5.440 -0.0389 -0.2583  0.2722
 5300WAT     H121906   2.280   4.677   5.523  1.2864 -2.0565  1.1104
 5300WAT     H221907   2.384   4.683   5.433  0.6123 -2.1832  0.3077
 5300WAT    EPW21908   2.310   4.664   5.452 -0.4974  0.8086  0.2193
 5301WAT      O21909   5.835   6.089   5.426 -0.2048  0.6135  0.1266
 5301WAT     H121910   5.794   6.018   5.455  0.6748 -0.3025 -0.8437
 5301WAT     H221911   5.783   6.118   5.362  0.5070 -0.4194 -0.9504
 5301WAT    EPW21912   5.821   6.083   5.421  0.2006 -0.4351  0.8114
 5302WAT      O21913   5.422   2.318   4.389  0.2600  0.1345 -0.6774
 5302WAT     H121914   5.406   2.369   4.457 -1.7350 -1.2600  0.0040
 5302WAT     H221915   5.342   2.303   4.356  1.1060  0.3192 -3.0063
 5302WAT    EPW21916   5.408   2.323   4.394 -0.7866  0.5138 -0.3488
 5303WAT      O21917   4.221   6.140   1.737 -0.3857 -0.4118  0.1681
 5303WAT     H121918   4.303   6.164   1.720 -0.4876 -0.9130 -1.1311
 5303WAT     H221919   4.209   6.069   1.687 -1.0970 -1.3075  1.5490
 5303WAT    EPW21920   4.231   6.133   1.727 -0.2149 -0.2199 -0.3811
 5304WAT      O21921   0.090   1.802   5.877  0.3422 -0.0866  0.9168
 5304WAT     H121922   0.017   1.850   5.872  1.3572  1.5223  1.0248
 5304WAT     H221923   0.150   1.852   5.838  1.1966 -1.8365 -0.1597
 5304WAT    EPW21924   0.088   1.817   5.870 -0.3272 -0.0467  0.1569
 5305WAT      O21925   4.721   0.196   5.689  0.2582 -0.7680  0.6849
 5305WAT     H121926   4.781   0.232   5.636 -0.3795 -1.2841 -0.4394
 5305WAT     H221927   4.727   0.111   5.672 -0.5304 -0.8592  0.8284
 5305WAT    EPW21928   4.731   0.189   5.678  0.1726 -0.2409  0.3408
 5306WAT      O21929   0.146   0.088   5.227 -0.0124 -0.3162 -0.5654
 5306WAT     H121930   0.106   0.130   5.292 -1.0183  0.3535 -1.5801
 5306WAT     H221931   0.091   0.098   5.160  2.1344  1.2283 -2.2177
 5306WAT    EPW21932   0.132   0.096   5.227  0.3181  0.1090  0.0803
 5307WAT      O21933   6.832   0.469   4.670 -0.0409  0.3425  0.4597
 5307WAT     H121934   6.840   0.483   4.584  0.3604  0.9378  0.5893
 5307WAT     H221935   6.870   0.391   4.682 -1.3946 -0.4560 -0.1144
 5307WAT    EPW21936   6.839   0.459   4.659  0.4858  0.2294  0.6516
 5308WAT      O21937   0.124   6.224   4.759  0.2776  0.0124 -0.5247
 5308WAT     H121938   0.056   6.236   4.706  0.7244 -1.1430 -1.4056
 5308WAT     H221939   0.191   6.258   4.714  0.0860  2.9981  1.1621
 5308WAT    EPW21940   0.124   6.231   4.745 -0.6043 -0.0338 -0.0583
 5309WAT      O21941   5.225   6.680   7.523  0.0974 -0.1261  0.3990
 5309WAT     H121942   5.186   6.631   7.463 -0.5320  0.2235  0.5150
 5309WAT     H221943   5.274   6.623   7.568  2.1308 -0.1362 -1.6210
 5309WAT    EPW21944   5.227   6.664   7.521  0.3467 -0.0056  0.1519
 5310WAT      O21945   4.639   3.037   6.419  0.2293 -0.8021  1.1947
 5310WAT     H121946   4.572   3.030   6.474 -0.5723  0.5344  0.4117
 5310WAT     H221947   4.645   2.957   6.384 -2.1098 -0.4945 -0.0399
 5310WAT    EPW21948   4.630   3.024   6.422  0.4259 -0.5291 -0.1292
 5311WAT      O21949   5.331   5.619   3.716  0.1779  0.2629 -0.4818
 5311WAT     H121950   5.361   5.581   3.643  0.5093  1.6030 -1.0793
 5311WAT     H221951   5.403   5.650   3.754  0.0311 -0.6343  0.5664
 5311WAT    EPW21952   5.346   5.618   3.711 -0.4128 -0.4775  0.4187
 5312WAT      O21953   6.563   0.439   7.187 -0.1712  0.2908  0.4234
 5312WAT     H121954   6.533   0.520   7.185  1.6657  1.0293  0.9739
 5312WAT     H221955   6.650   0.449   7.195  0.3346 -1.6825 -1.5516
 5312WAT    EPW21956   6.572   0.452   7.188  0.2655 -0.2460 -0.0903
 5313WAT      O21957   2.670   5.372   3.512 -0.1645 -0.5634 -0.4589
 5313WAT     H121958   2.739   5.370   3.458  0.5973  0.6617  0.4224
 5313WAT     H221959   2.650   5.288   3.522  2.2535 -1.0958  0.5380
 5313WAT    EPW21960   2.678   5.359   3.505  0.0985  0.0695  0.4301
 5314WAT      O21961   4.528   3.424   1.110 -0.7002  0.2817  0.8441
 5314WAT     H121962   4.513   3.475   1.040 -2.1485  0.4803  1.2589
 5314WAT     H221963   4.569   3.355   1.076  0.3487  1.2199  0.1103
 5314WAT    EPW21964   4.532   3.421   1.094  0.4279 -0.2136 -0.1575
 5315WAT      O21965   7.183   1.125   7.195 -0.0981  0.1712  0.0106
 5315WAT     H121966   7.189   1.203   7.156 -0.8687 -0.2110 -0.8949
 5315WAT     H221967   7.143   1.143   7.270 -0.0429  0.6829 -0.0777
 5315WAT    EPW21968   7.178   1.139   7.200 -0.3997  0.1966 -0.5354
 5316WAT      O21969   7.173   6.299   6.248 -0.1014  0.7182  0.0328
 5316WAT     H121970   7.216   6.287   6.174 -0.2675  0.3265 -0.0014
 5316WAT     H221971   7.209   6.372   6.281 -0.2396  1.0678 -0.5753
 5316WAT    EPW21972   7.185   6.308   6.242 -0.4307  0.2387  0.4246
 5317WAT      O21973   2.434   0.028   0.568 -0.2859  0.5233 -0.4344
 5317WAT     H121974   2.374   0.014   0.506 -1.2453  1.9409  0.1291
 5317WAT     H221975   2.387   0.029   0.642  0.5208  1.0764  0.0871
 5317WAT    EPW21976   2.418   0.026   0.570 -0.8144 -0.5264  0.4944
 5318WAT      O21977   5.270   3.369   3.946 -0.4075  0.3473 -0.0648
 5318WAT     H121978   5.243   3.318   3.881  0.2612 -0.1310  0.0212
 5318WAT     H221979   5.240   3.328   4.017 -0.4490  0.4419 -0.0271
 5318WAT    EPW21980   5.262   3.355   3.947 -0.3487 -0.0720  0.2710
 5319WAT      O21981   4.289   0.356   6.375 -0.0015  0.2346 -0.1715
 5319WAT     H121982   4.245   0.358   6.300 -0.2520  0.0907 -0.0318
 5319WAT     H221983   4.357   0.409   6.361  0.0597  0.0589 -0.5646
 5319WAT    EPW21984   4.293   0.364   6.362  0.0668  0.4700 -0.4442
 5320WAT      O21985   5.218   4.458   0.385  0.6243  0.0314 -0.2614
 5320WAT     H121986   5.213   4.379   0.421  0.1373  0.2307  0.1369
 5320WAT     H221987   5.287   4.453   0.333 -0.1821 -1.0770 -1.2842
 5320WAT    EPW21988   5.227   4.446   0.383  0.2439  0.2398 -0.5287
 5321WAT      O21989   0.376   4.442   5.223  0.0856  0.2730  0.1902
 5321WAT     H121990   0.393   4.378   5.167  0.1566  0.4881 -0.0353
 5321WAT     H221991   0.320   4.406   5.279 -0.8730  0.3948 -0.6738
 5321WAT    EPW21992   0.370   4.428   5.223 -0.2252  0.3248 -0.1799
 5322WAT      O21993   0.921   2.397   1.434  0.0892 -0.1756  0.1287
 5322WAT     H121994   0.920   2.418   1.519  2.0673  1.3962 -0.1639
 5322WAT     H221995   0.992   2.346   1.427  1.4744  1.7517 -0.9233
 5322WAT    EPW21996   0.931   2.392   1.446 -0.0487 -0.5892 -0.2822
 5323WAT      O21997   4.543   4.401   7.207  0.2881 -0.2335  0.0597
 5323WAT     H121998   4.514   4.351   7.273  0.4221 -1.2502 -0.6190
 5323WAT     H221999   4.614   4.440   7.241  0.0148 -0.2823  0.7033
 5323WAT    EPW22000   4.550   4.399   7.222 -0.4724  0.7895 -0.1759
 5324WAT      O22001   1.832   4.145   7.128  0.5724 -0.6634 -0.0745
 5324WAT     H122002   1.897   4.096   7.097 -0.9259 -2.1182 -1.1005
 5324WAT     H222003   1.765   4.128   7.074 -0.6284  0.8765  0.8301
 5324WAT    EPW22004   1.831   4.135   7.115  0.2012 -0.5473 -0.1213
 5325WAT      O22005   7.092   3.218   1.195  0.0698  0.7407 -0.0978
 5325WAT     H122006   7.049   3.292   1.176 -3.0449 -0.8543  0.1687
 5325WAT     H222007   7.068   3.201   1.277  1.3837 -0.2236  0.1279
 5325WAT    EPW22008   7.082   3.227   1.205  0.2131 -0.2242  0.4090
 5326WAT      O22009   3.206   6.608   1.330  0.4777 -0.0340 -0.1990
 5326WAT     H122010   3.144   6.664   1.353 -0.4499 -0.5589 -1.3028
 5326WAT     H222011   3.206   6.549   1.394  0.6015  0.5408  0.3403
 5326WAT    EPW22012   3.197   6.607   1.343  0.5534  0.1808  0.5825
 5327WAT      O22013   7.392   7.374   6.915 -0.1558 -0.0578  0.3207
 5327WAT     H122014   7.383   7.461   6.918  2.2262  0.3875 -1.7246
 5327WAT     H222015   7.469   7.360   6.954 -1.6223 -1.6268  2.8949
 5327WAT    EPW22016   7.402   7.385   6.921  0.2443 -0.8884  0.8408
 5328WAT      O22017   5.207   5.344   4.429  0.2106 -0.1126 -0.1654
 5328WAT     H122018   5.226   5.294   4.498 -0.0762 -2.5528 -1.7401
 5328WAT     H222019   5.281   5.345   4.383  0.6171  2.0727  0.4001
 5328WAT    EPW22020   5.220   5.337   4.433 -0.4365  0.1611 -0.0058
 5329WAT      O22021   4.213   5.443   7.198 -0.3802 -0.0846  0.1077
 5329WAT     H122022   4.207   5.414   7.280 -0.0313 -1.6043 -0.3741
 5329WAT     H222023   4.130   5.463   7.178 -0.2101  2.2691  1.4660
 5329WAT    EPW22024   4.200   5.441   7.207 -0.3147 -0.7046 -0.5430
 5330WAT      O22025   5.291   3.020   4.033  0.2697 -0.4570  0.5775
 5330WAT     H122026   5.260   3.053   3.958  0.0020  0.2108  0.9708
 5330WAT     H222027   5.376   3.042   4.031  0.1975 -0.1620  0.6091
 5330WAT    EPW22028   5.299   3.028   4.022 -0.2367  0.1710 -0.0074
 5331WAT      O22029   2.161   4.151   1.647  0.6458  0.1750 -0.2164
 5331WAT     H122030   2.118   4.075   1.656 -0.0457  0.6512  0.6324
 5331WAT     H222031   2.104   4.210   1.675  2.2394  0.7462  2.1519
 5331WAT    EPW22032   2.146   4.149   1.653 -0.2877 -0.0415  0.2569
 5332WAT      O22033   5.402   2.971   2.141 -0.0181 -0.4021 -0.0239
 5332WAT     H122034   5.478   2.932   2.127  0.7536  0.7633  0.7384
 5332WAT     H222035   5.418   3.055   2.125 -1.1110 -0.1299  0.2205
 5332WAT    EPW22036   5.415   2.978   2.137  0.0884  0.2698 -0.0412
 5333WAT      O22037   4.077   1.674   5.124 -0.5688 -0.0046  0.5096
 5333WAT     H122038   4.134   1.607   5.125  0.3363  0.6628 -1.2844
 5333WAT     H222039   4.002   1.638   5.148 -0.1437 -1.7422 -0.5961
 5333WAT    EPW22040   4.074   1.659   5.127  0.2694  0.2369  0.0514
 5334WAT      O22041   7.531   2.621   6.690  0.1558 -0.1837  0.1180
 5334WAT     H122042   7.448   2.598   6.705 -0.3501  0.7814 -1.0858
 5334WAT     H222043   7.526   2.677   6.623  1.8938 -0.9966 -0.7534
 5334WAT    EPW22044   7.518   2.626   6.682  0.5108 -0.0922  0.1885
 5335WAT      O22045   0.467   0.533   1.012  0.2347  0.2400  0.1605
 5335WAT     H122046   0.476   0.525   1.098 -0.6308 -2.0589  0.1195
 5335WAT     H222047   0.412   0.600   1.003  0.4715  0.6247  1.3820
 5335WAT    EPW22048   0.460   0.541   1.023 -0.7427  0.1158 -0.3979
 5336WAT      O22049   3.625   0.408   0.618  0.9223  1.2517  0.2768
 5336WAT     H122050   3.663   0.331   0.632  3.1803  0.8850 -5.1677
 5336WAT     H222051   3.690   0.465   0.630  0.4198  1.8033  0.3944
 5336WAT    EPW22052   3.641   0.405   0.622  0.3083  0.2174  0.1224
 5337WAT      O22053   2.399   7.356   6.258  0.3522  0.3103  1.0502
 5337WAT     H122054   2.390   7.292   6.199  1.8571  2.2537 -1.4592
 5337WAT     H222055   2.469   7.400   6.231  1.9794  0.6392  5.0848
 5337WAT    EPW22056   2.408   7.353   6.246  0.1595  0.0285  0.7354
 5338WAT      O22057   1.522   5.962   7.113 -0.1473 -0.2294 -0.6354
 5338WAT     H122058   1.577   5.961   7.181 -0.8653 -2.0443 -0.0150
 5338WAT     H222059   1.445   5.979   7.150 -0.5098 -1.0087 -1.0108
 5338WAT    EPW22060   1.519   5.964   7.129  0.3205 -0.2008  0.0468
 5339WAT      O22061   0.728   1.178   7.529  0.3442  0.0452  0.3221
 5339WAT     H122062   0.741   1.147   7.610 -2.4608 -0.1809  0.7808
 5339WAT     H222063   0.695   1.258   7.543  1.4618  0.7220 -0.7028
 5339WAT    EPW22064   0.725   1.185   7.543 -0.4677 -0.0149 -0.1682
 5340WAT      O22065   4.071   0.800   5.652  0.0437  0.8907 -0.0342
 5340WAT     H122066   3.994   0.761   5.655  0.1337  0.7216  0.0842
 5340WAT     H222067   4.093   0.797   5.567  0.0525  0.6817 -0.0242
 5340WAT    EPW22068   4.063   0.794   5.640  0.1617 -0.0923 -0.2833
 5341WAT      O22069   1.942   4.079   3.216  0.2208 -0.2436  0.5775
 5341WAT     H122070   1.995   4.031   3.167 -2.1637 -1.1974 -1.3068
 5341WAT     H222071   1.915   4.024   3.278 -1.8841 -1.2770 -1.1095
 5341WAT    EPW22072   1.946   4.064   3.218  0.2655 -0.2408  0.0078
 5342WAT      O22073   7.266   0.031   7.211 -0.2364 -0.5224  0.4783
 5342WAT     H122074   7.286   0.016   7.127 -2.2808  1.9306 -0.6163
 5342WAT     H222075   7.343   0.045   7.248  0.7475 -1.8813 -0.9266
 5342WAT    EPW22076   7.280   0.031   7.204  0.2970  0.1438  0.6033
 5343WAT      O22077   0.584   2.515   6.685  0.6321  0.3292  0.0004
 5343WAT     H122078   0.544   2.558   6.621  0.5454 -0.2089 -0.3117
 5343WAT     H222079   0.597   2.576   6.746  0.8435  0.8743 -0.5879
 5343WAT    EPW22080   0.580   2.530   6.685  0.2843  0.1182 -0.3477
 5344WAT      O22081   6.861   3.584   5.496  0.3261 -0.4426  0.3073
 5344WAT     H122082   6.871   3.651   5.441 -1.0186 -2.6202 -2.8731
 5344WAT     H222083   6.780   3.596   5.527  0.1474 -0.5115 -0.1287
 5344WAT    EPW22084   6.850   3.596   5.493  0.0798 -0.5409  0.1704
 5345WAT      O22085   6.578   3.579   2.913  0.3540 -0.1969 -0.3528
 5345WAT     H122086   6.621   3.648   2.944  2.6738 -1.6663 -0.0680
 5345WAT     H222087   6.533   3.550   2.983  1.2670 -0.3418  0.1903
 5345WAT    EPW22088   6.578   3.585   2.928 -0.1794  0.3934  0.7478
 5346WAT      O22089   5.932   0.469   0.372 -0.2797  0.0353  0.2097
 5346WAT     H122090   5.989   0.532   0.353  0.6607 -0.8009  0.1700
 5346WAT     H222091   5.878   0.469   0.304 -0.1126  0.5867  0.0680
 5346WAT    EPW22092   5.932   0.479   0.359 -0.7332 -0.2170  0.1984
 5347WAT      O22093   4.282   6.118   4.019 -0.0576 -0.7056  0.2054
 5347WAT     H122094   4.341   6.086   4.075 -0.3627 -0.4361  0.6854
 5347WAT     H222095   4.210   6.128   4.068 -0.7485 -1.7731 -0.5430
 5347WAT    EPW22096   4.280   6.115   4.034  0.3915  0.8178  0.4693
 5348WAT      O22097   2.044   1.402   1.510 -0.4326 -0.3174  0.3097
 5348WAT     H122098   2.019   1.438   1.434 -2.9580  0.1370  1.2574
 5348WAT     H222099   2.052   1.317   1.492 -0.0059 -0.0754 -0.6778
 5348WAT    EPW22100   2.042   1.395   1.496 -0.0102 -0.0690  0.1682
 5349WAT      O22101   6.795   5.539   4.402  0.3410  0.3214  0.2462
 5349WAT     H122102   6.868   5.580   4.427  1.0557 -0.9027  0.2026
 5349WAT     H222103   6.823   5.464   4.369 -0.8935  0.1684 -0.5219
 5349WAT    EPW22104   6.810   5.534   4.401  0.2724 -0.0160  0.3290
 5350WAT      O22105   5.878   4.250   2.963 -0.4171 -0.0882 -0.3267
 5350WAT     H122106   5.862   4.319   3.015 -0.5256  0.4774 -1.0892
 5350WAT     H222107   5.840   4.272   2.888 -0.4422 -0.9898 -0.5878
 5350WAT    EPW22108   5.870   4.264   2.960  0.2752  0.0076 -0.2281
 5351WAT      O22109   6.351   3.313   5.179  0.5090 -0.3962  0.1852
 5351WAT     H122110   6.397   3.342   5.248  0.2982  0.4793 -0.0327
 5351WAT     H222111   6.269   3.310   5.209 -0.0052  2.3389 -0.6710
 5351WAT    EPW22112   6.346   3.317   5.194 -0.2293 -0.1008  0.1249
 5352WAT      O22113   3.897   6.448   1.954 -0.1343 -0.2674 -0.0533
 5352WAT     H122114   3.948   6.378   1.962  0.3285  0.1150  0.3752
 5352WAT     H222115   3.865   6.460   2.035 -1.1568 -0.6897 -0.3794
 5352WAT    EPW22116   3.900   6.440   1.967 -0.2280  0.4851  0.5481
 5353WAT      O22117   6.163   0.688   4.838  0.4631  0.5965  0.4669
 5353WAT     H122118   6.133   0.708   4.917 -0.1830 -1.2062  0.7145
 5353WAT     H222119   6.108   0.627   4.809  0.8931  0.9469 -1.2351
 5353WAT    EPW22120   6.151   0.682   4.845  0.6826 -0.3034  0.0044
 5354WAT      O22121   4.053   6.126   2.803 -0.6520 -1.1008 -0.0744
 5354WAT     H122122   4.128   6.110   2.762 -1.2238 -0.2236 -1.5111
 5354WAT     H222123   4.072   6.192   2.857 -0.4007 -0.8534 -0.4669
 5354WAT    EPW22124   4.067   6.133   2.805  0.4418 -0.0027  0.1645
 5355WAT      O22125   5.855   4.132   3.267  0.3534 -0.2883 -0.4089
 5355WAT     H122126   5.843   4.078   3.200  0.7307  2.5409 -2.9645
 5355WAT     H222127   5.938   4.118   3.290  0.1888 -1.3718 -0.4273
 5355WAT    EPW22128   5.865   4.122   3.261  0.7004  0.6509  0.7594
 5356WAT      O22129   6.277   0.931   7.330 -0.0987  0.2575  0.2682
 5356WAT     H122130   6.354   0.902   7.360  0.4333  1.9560  0.6571
 5356WAT     H222131   6.286   0.928   7.243 -0.7016 -2.2461  0.2021
 5356WAT    EPW22132   6.290   0.926   7.322 -0.0992  0.9008 -0.2016
 5357WAT      O22133   3.461   6.800   0.327  0.2539  0.0492  0.1038
 5357WAT     H122134   3.539   6.838   0.318  0.6043 -0.6043  0.2812
 5357WAT     H222135   3.480   6.721   0.358 -0.4697 -0.1807 -0.0042
 5357WAT    EPW22136   3.475   6.794   0.330  0.1671 -0.0759 -0.6661
 5358WAT      O22137   0.215   2.552   0.227  0.0960 -0.2532  0.7287
 5358WAT     H122138   0.297   2.568   0.202 -0.0952 -1.1217 -0.5628
 5358WAT     H222139   0.195   2.477   0.185 -1.4441  0.0815  0.7972
 5358WAT    EPW22140   0.224   2.543   0.217  0.2185 -0.0111 -0.2131
 5359WAT      O22141   5.128   4.400   4.405 -0.1420 -0.4064 -0.1615
 5359WAT     H122142   5.167   4.324   4.382 -0.5690 -0.9775  0.9406
 5359WAT     H222143   5.195   4.455   4.412  0.1802 -0.6644 -0.9769
 5359WAT    EPW22144   5.144   4.397   4.402 -0.4558  0.7224 -0.1749
 5360WAT      O22145   2.802   7.013   4.353 -0.7784  0.1353  0.2244
 5360WAT     H122146   2.742   6.959   4.319 -1.4178  0.5266  0.7110
 5360WAT     H222147   2.871   7.001   4.301 -2.2812  2.1124 -2.5188
 5360WAT    EPW22148   2.803   7.003   4.340  0.2443  0.0609 -0.3988
 5361WAT      O22149   3.145   1.946   5.292  0.1584  0.3337 -0.0400
 5361WAT     H122150   3.102   1.879   5.327  1.0800 -0.1934  0.1080
 5361WAT     H222151   3.167   1.995   5.360  1.0040 -0.1329  0.0433
 5361WAT    EPW22152   3.142   1.943   5.307  0.0264 -0.2587  0.3042
 5362WAT      O22153   5.031   3.042   2.966  0.4515 -0.8772 -0.1354
 5362WAT     H122154   4.944   3.054   2.960  0.6388  0.7825  0.0489
 5362WAT     H222155   5.059   3.054   2.885  0.7855  1.5144  0.2663
 5362WAT    EPW22156   5.022   3.046   2.953  0.0980 -0.4971  0.4078
 5363WAT      O22157   0.125   7.258   2.871  0.1295  0.9319  0.0721
 5363WAT     H122158   0.171   7.275   2.943  0.9853  0.8108 -0.4419
 5363WAT     H222159   0.043   7.250   2.901  0.6464 -0.4399  1.2297
 5363WAT    EPW22160   0.119   7.259   2.886  0.0314  0.1318 -0.4521
 5364WAT      O22161   3.944   0.778   0.329  0.0073 -1.0851 -0.2149
 5364WAT     H122162   3.998   0.845   0.343  0.4093 -1.7056  1.5004
 5364WAT     H222163   3.869   0.804   0.365 -0.6181 -0.5676 -1.8276
 5364WAT    EPW22164   3.941   0.791   0.336 -0.1480 -0.0361 -0.3583
 5365WAT      O22165   5.076   4.028   4.096  0.6663 -0.5125 -0.1377
 5365WAT     H122166   5.152   4.023   4.138  0.1847  0.5109  0.9064
 5365WAT     H222167   5.083   4.101   4.050 -0.2032  0.4141  1.1187
 5365WAT    EPW22168   5.088   4.038   4.095 -0.1606  0.0742 -0.7082
 5366WAT      O22169   4.378   3.905   1.390 -0.4324  0.4307  0.0866
 5366WAT     H122170   4.361   3.882   1.472 -1.4613 -3.3894 -1.0187
 5366WAT     H222171   4.460   3.879   1.377 -0.3390  0.8350 -0.1660
 5366WAT    EPW22172   4.388   3.898   1.400  0.1862 -0.0235 -0.4238
 5367WAT      O22173   5.083   3.747   6.913 -0.3793 -0.4211  0.2442
 5367WAT     H122174   5.107   3.706   6.840 -0.9491 -0.9297  0.3381
 5367WAT     H222175   5.150   3.733   6.967  0.4116  0.6461 -0.4328
 5367WAT    EPW22176   5.096   3.739   6.910 -0.4920  0.4539  0.6062
 5368WAT      O22177   1.188   0.311   5.907 -0.2842 -0.4240 -0.3946
 5368WAT     H122178   1.263   0.313   5.951 -1.0089 -1.7494  1.0022
 5368WAT     H222179   1.128   0.328   5.968 -1.1867 -0.1440 -1.3234
 5368WAT    EPW22180   1.190   0.314   5.922  0.3730 -0.1448 -0.7627
 5369WAT      O22181   6.398   1.991   3.881  0.5026  0.4639 -0.4853
 5369WAT     H122182   6.402   2.011   3.966 -0.2010  0.2918 -0.4056
 5369WAT     H222183   6.462   1.933   3.871  2.7459  2.8373 -0.7674
 5369WAT    EPW22184   6.408   1.986   3.892  0.0307 -0.1604  0.5916
 5370WAT      O22185   6.104   2.808   3.967  0.0839  0.5209 -0.0114
 5370WAT     H122186   6.159   2.842   4.025  0.3021 -0.7569  0.5491
 5370WAT     H222187   6.037   2.781   4.016  0.8986 -1.8901 -0.1009
 5370WAT    EPW22188   6.102   2.809   3.983 -0.3728  0.3720  0.1448
 5371WAT      O22189   1.483   5.412   3.269  0.3563 -0.3907 -0.2561
 5371WAT     H122190   1.412   5.362   3.266 -0.3726  0.6206 -0.2864
 5371WAT     H222191   1.532   5.375   3.332 -0.8316 -0.2714  0.7611
 5371WAT    EPW22192   1.480   5.399   3.278  0.1471  0.7541 -0.1707
 5372WAT      O22193   7.185   1.455   3.147  0.3426  0.1203 -0.0343
 5372WAT     H122194   7.153   1.376   3.166 -2.4820  0.9327 -0.9446
 5372WAT     H222195   7.162   1.503   3.215  0.0046  0.6127 -0.4858
 5372WAT    EPW22196   7.177   1.450   3.160  0.4316 -0.1823 -0.2917
 5373WAT      O22197   5.345   3.670   4.678 -0.4574  0.4271 -0.7214
 5373WAT     H122198   5.285   3.608   4.692  0.7736 -0.9017 -1.0173
 5373WAT     H222199   5.337   3.723   4.747  1.9839 -3.0223  2.6042
 5373WAT    EPW22200   5.335   3.668   4.690 -0.7879 -0.1901 -0.1304
 5374WAT      O22201   4.611   7.145   0.366 -0.2729 -0.2289  0.1150
 5374WAT     H122202   4.621   7.064   0.396 -1.4968 -0.0414  1.1451
 5374WAT     H222203   4.621   7.137   0.280  1.2313 -1.1738  0.3398
 5374WAT    EPW22204   4.614   7.132   0.358  0.4557 -0.0626 -0.6208
 5375WAT      O22205   6.933   7.074   3.619  0.0215 -0.1354  0.0075
 5375WAT     H122206   6.868   7.023   3.591 -0.3641  0.2253  0.2436
 5375WAT     H222207   6.978   7.092   3.546 -0.6105  0.2785 -0.2853
 5375WAT    EPW22208   6.930   7.069   3.604  0.2312 -0.0301 -0.3592
 5376WAT      O22209   0.622   5.006   3.813 -0.4144 -0.2044 -0.0020
 5376WAT     H122210   0.558   5.064   3.828 -1.5861 -1.7723  1.3183
 5376WAT     H222211   0.665   5.003   3.888 -0.1073 -0.7279 -0.1948
 5376WAT    EPW22212   0.619   5.014   3.826  0.5034  0.5626  1.0236
 5377WAT      O22213   1.209   7.020   4.146 -0.7073  0.0196 -0.2776
 5377WAT     H122214   1.195   6.987   4.225 -1.1671  1.2140  0.1581
 5377WAT     H222215   1.220   6.949   4.096  0.6563 -0.7587  1.0257
 5377WAT    EPW22216   1.209   7.005   4.150  0.1864 -0.0751  0.0180
 5378WAT      O22217   5.667   6.617   7.320 -0.2698 -0.0143 -0.3829
 5378WAT     H122218   5.721   6.633   7.254  1.0457  1.5780  0.9936
 5378WAT     H222219   5.616   6.687   7.323 -0.5647 -0.2399  0.0697
 5378WAT    EPW22220   5.667   6.629   7.311 -0.0115  0.7687 -0.2915
 5379WAT      O22221   4.571   6.031   2.585 -0.1719  0.3108  0.1189
 5379WAT     H122222   4.492   6.057   2.558 -0.3551 -0.2975  0.0568
 5379WAT     H222223   4.613   6.011   2.511  1.2767  3.8217 -0.2239
 5379WAT    EPW22224   4.566   6.032   2.570  0.1655  0.1942  0.3022
 5380WAT      O22225   4.192   2.716   7.174  0.3939 -0.2265  0.1982
 5380WAT     H122226   4.242   2.725   7.103  1.7906 -0.2758  1.1429
 5380WAT     H222227   4.120   2.677   7.143  0.0841  1.5618 -1.5302
 5380WAT    EPW22228   4.189   2.712   7.159 -0.0923 -0.0326 -0.0044
 5381WAT      O22229   2.634   0.359   7.008 -0.0796 -0.5344  0.6714
 5381WAT     H122230   2.708   0.340   6.966 -0.5581 -3.2908  0.8743
 5381WAT     H222231   2.656   0.350   7.092 -0.7690 -2.0900  0.7089
 5381WAT    EPW22232   2.649   0.355   7.014  0.4094  0.3858  0.3374
 5382WAT      O22233   0.709   1.155   5.705 -0.2539  0.2899 -0.2552
 5382WAT     H122234   0.644   1.213   5.692 -0.5715  0.2053  0.8908
 5382WAT     H222235   0.722   1.122   5.625 -1.5041  0.4316 -0.5478
 5382WAT    EPW22236   0.701   1.159   5.691  0.0290 -0.1312 -0.0162
 5383WAT      O22237   6.227   0.169   2.384 -0.2973 -0.2733 -0.3330
 5383WAT     H122238   6.243   0.193   2.467  1.2285 -1.2882 -0.3055
 5383WAT     H222239   6.206   0.085   2.391 -0.5163 -0.2705 -0.9423
 5383WAT    EPW22240   6.226   0.161   2.398 -0.0440 -0.1695  0.5081
 5384WAT      O22241   5.846   4.211   5.470 -0.1556  0.1608 -0.1703
 5384WAT     H122242   5.846   4.135   5.426  0.3575 -0.3057  0.6016
 5384WAT     H222243   5.858   4.271   5.408  0.9971 -0.5058 -0.6237
 5384WAT    EPW22244   5.848   4.208   5.454  0.3872  0.4254 -0.0323
 5385WAT      O22245   6.898   7.552   2.837 -0.0947  0.3367  0.4741
 5385WAT     H122246   6.943   7.624   2.858 -1.1656  0.5827  2.1154
 5385WAT     H222247   6.907   7.547   2.751  0.9087  1.8235  0.4477
 5385WAT    EPW22248   6.906   7.562   2.828 -0.0769 -0.2955 -0.4996
 5386WAT      O22249   2.304   2.912   5.810 -0.9260 -0.4776  0.0971
 5386WAT     H122250   2.250   2.903   5.742 -0.3525 -0.8540 -0.3162
 5386WAT     H222251   2.316   2.998   5.815 -0.7857 -0.4636 -0.4249
 5386WAT    EPW22252   2.298   2.924   5.801 -0.0929  0.7053  0.1879
 5387WAT      O22253   7.402   5.627   7.361 -0.0567  0.4033 -0.5052
 5387WAT     H122254   7.359   5.675   7.420 -0.3329 -0.2019 -0.2041
 5387WAT     H222255   7.458   5.684   7.325  1.5032  0.3633  1.6980
 5387WAT    EPW22256   7.404   5.643   7.364  0.4037 -0.2289  0.7069
 5388WAT      O22257   5.215   5.078   6.525  0.5454 -0.4478 -0.3270
 5388WAT     H122258   5.253   5.047   6.597 -0.9986 -0.5031  0.4991
 5388WAT     H222259   5.176   5.009   6.490  0.6831 -0.2728 -0.8464
 5388WAT    EPW22260   5.215   5.063   6.530  0.3304  0.1979  0.1261
 5389WAT      O22261   3.665   1.174   5.829 -0.5787  0.1468 -0.2086
 5389WAT     H122262   3.715   1.103   5.835  0.7005  1.1521  2.2193
 5389WAT     H222263   3.594   1.145   5.787  0.1634 -2.3901  0.1027
 5389WAT    EPW22264   3.662   1.159   5.824  0.3381 -0.0735 -0.0787
 5390WAT      O22265   1.668   4.058   6.905 -0.6711 -0.5582  0.0931
 5390WAT     H122266   1.583   4.078   6.898 -1.0851 -1.2010  2.3545
 5390WAT     H222267   1.667   3.973   6.926  0.7267 -1.3314 -2.5015
 5390WAT    EPW22268   1.655   4.048   6.907 -0.1666  0.7908  0.1607
 5391WAT      O22269   3.862   0.206   6.397  0.1354 -0.0042  0.1236
 5391WAT     H122270   3.845   0.122   6.382 -3.1766  0.4919  0.4199
 5391WAT     H222271   3.921   0.204   6.461  0.4706 -2.0742 -0.1870
 5391WAT    EPW22272   3.868   0.193   6.404  0.5538  0.5526 -0.6798
 5392WAT      O22273   5.366   5.519   5.083  0.3248  0.1704 -0.0119
 5392WAT     H122274   5.430   5.503   5.026  0.2552 -0.3483  0.0549
 5392WAT     H222275   5.392   5.478   5.156 -0.8394 -1.4637 -0.4542
 5392WAT    EPW22276   5.379   5.511   5.086 -0.0397 -0.1244 -0.0001
 5393WAT      O22277   5.528   1.012   4.365  0.1521  0.0831  0.1601
 5393WAT     H122278   5.583   1.059   4.413 -1.2332  2.0752 -0.0634
 5393WAT     H222279   5.455   1.060   4.364 -1.1262 -1.7261 -0.7632
 5393WAT    EPW22280   5.525   1.026   4.372 -0.0359 -0.3755  0.8938
 5394WAT      O22281   6.555   6.313   7.582  0.5389 -0.2382 -0.2547
 5394WAT     H122282   6.524   6.275   7.655 -0.3826  1.2889  0.1759
 5394WAT     H222283   6.491   6.366   7.557  1.7610  0.9901 -0.8755
 5394WAT    EPW22284   6.541   6.315   7.589 -0.0839 -0.4067 -0.4047
 5395WAT      O22285   1.423   7.201   4.801 -0.2375  0.1116 -0.5808
 5395WAT     H122286   1.390   7.244   4.732  0.2778  2.5919  0.6297
 5395WAT     H222287   1.352   7.164   4.837 -0.6903 -0.1174 -1.6461
 5395WAT    EPW22288   1.407   7.202   4.796 -0.4877 -0.0548 -0.1222
 5396WAT      O22289   2.681   1.609   5.795 -0.0265  0.2291  0.2610
 5396WAT     H122290   2.673   1.691   5.823  0.0225  0.0437  0.8420
 5396WAT     H222291   2.703   1.565   5.867  0.2560 -0.2432 -0.1060
 5396WAT    EPW22292   2.683   1.615   5.810 -0.0146  0.3350  0.5657
 5397WAT      O22293   0.625   2.050   5.825  0.2374 -0.0613 -0.0140
 5397WAT     H122294   0.626   2.018   5.744 -0.1573 -0.7212  0.2306
 5397WAT     H222295   0.551   2.017   5.859  1.1033 -0.9636  1.0671
 5397WAT    EPW22296   0.614   2.040   5.818 -0.3115 -0.8228 -0.5521
 5398WAT      O22297   7.165   1.958   4.086 -0.1802  0.5704  0.1022
 5398WAT     H122298   7.203   1.888   4.122  0.4683  0.4097 -0.8796
 5398WAT     H222299   7.081   1.950   4.111 -0.2321 -0.8412 -0.3933
 5398WAT    EPW22300   7.158   1.946   4.095  0.0552  0.0990 -0.3728
 5399WAT      O22301   4.715   5.564   4.784 -0.4750  0.1601  0.0847
 5399WAT     H122302   4.773   5.549   4.847 -0.8774 -0.5309  0.2948
 5399WAT     H222303   4.762   5.602   4.721 -0.2389  1.7776  1.1584
 5399WAT    EPW22304   4.730   5.568   4.784 -0.4611  0.8456  0.0935
 5400WAT      O22305   6.467   2.646   3.803 -0.4978  0.3555 -0.0299
 5400WAT     H122306   6.506   2.568   3.804 -0.1935  0.4745  1.9351
 5400WAT     H222307   6.532   2.703   3.796 -0.5423  0.4735  0.4595
 5400WAT    EPW22308   6.482   2.643   3.802 -0.0797  0.2161  0.8986
 5401WAT      O22309   2.414   1.079   3.091 -0.4317 -0.1273  1.0489
 5401WAT     H122310   2.414   1.094   3.005  0.7192 -0.8480  0.9075
 5401WAT     H222311   2.337   1.110   3.117 -0.0390  1.8280  0.0688
 5401WAT    EPW22312   2.403   1.086   3.082 -0.2078 -0.5264 -0.1734
 5402WAT      O22313   7.129   0.499   3.083  0.0646  0.3970  0.0751
 5402WAT     H122314   7.216   0.494   3.080  0.2035  0.7961  2.0791
 5402WAT     H222315   7.114   0.584   3.092 -0.4069  0.2022  1.3935
 5402WAT    EPW22316   7.140   0.511   3.084  0.7420 -0.0878  0.3839
 5403WAT      O22317   5.146   4.453   5.809  0.2606 -0.1496 -0.8946
 5403WAT     H122318   5.070   4.474   5.845  0.4151 -0.3022 -0.4785
 5403WAT     H222319   5.141   4.487   5.728 -0.2988 -0.2758 -0.9130
 5403WAT    EPW22320   5.134   4.461   5.802 -0.1009  0.3315  0.4638
 5404WAT      O22321   3.950   3.052   1.836  0.5587  0.1779 -0.4934
 5404WAT     H122322   3.950   3.076   1.920  0.5757 -0.5207 -0.2872
 5404WAT     H222323   4.027   3.081   1.806 -0.4720  2.6748 -0.9568
 5404WAT    EPW22324   3.962   3.059   1.844 -0.6826 -0.4898  0.1823
 5405WAT      O22325   0.581   6.287   3.603  0.7699 -0.1618 -0.1376
 5405WAT     H122326   0.648   6.243   3.636  1.2748  0.5796 -0.1479
 5405WAT     H222327   0.513   6.259   3.650  1.0153 -1.1873 -0.3679
 5405WAT    EPW22328   0.581   6.277   3.615 -0.3523 -0.2874  0.3173
 5406WAT      O22329   1.266   1.920   4.012  0.2104 -0.0232 -0.2264
 5406WAT     H122330   1.268   1.995   3.967  0.9198  1.0853  1.5321
 5406WAT     H222331   1.331   1.874   3.978  1.0756  1.0041 -0.0055
 5406WAT    EPW22332   1.276   1.925   4.000 -0.8458  0.3330  0.2879
 5407WAT      O22333   0.815   0.140   5.725 -0.2866  0.2079  0.1054
 5407WAT     H122334   0.742   0.146   5.772 -0.1005  0.0455  0.4200
 5407WAT     H222335   0.787   0.112   5.647 -0.5473  0.0474  0.2550
 5407WAT    EPW22336   0.800   0.137   5.720 -0.1074  0.2091  0.3866
 5408WAT      O22337   0.103   3.612   1.674 -0.2052  0.1106 -0.4006
 5408WAT     H122338   0.119   3.677   1.731  1.3395 -1.0729  0.5966
 5408WAT     H222339   0.150   3.545   1.705 -2.0507 -1.6425 -1.1552
 5408WAT    EPW22340   0.112   3.612   1.687  0.4319 -0.4151  0.1258
 5409WAT      O22341   0.617   5.662   5.751  0.2010  0.4932 -0.1796
 5409WAT     H122342   0.579   5.583   5.752  1.3043 -0.0450  0.2926
 5409WAT     H222343   0.670   5.658   5.682  0.3408  0.7826 -0.0900
 5409WAT    EPW22344   0.619   5.650   5.741 -1.0934  0.5456  0.4414
 5410WAT      O22345   6.936   7.178   7.026 -0.3284 -0.0742  0.4200
 5410WAT     H122346   6.899   7.245   7.068 -0.0455 -0.1033  0.7188
 5410WAT     H222347   7.021   7.190   7.041 -0.0690  0.7708 -1.3436
 5410WAT    EPW22348   6.943   7.190   7.034 -0.2607  0.0446 -0.3797
 5411WAT      O22349   4.010   0.876   4.331  0.2590  0.4386 -0.9581
 5411WAT     H122350   4.008   0.963   4.342 -1.2903  0.4520 -1.0915
 5411WAT     H222351   3.927   0.853   4.341  0.7728 -1.1571 -0.0667
 5411WAT    EPW22352   3.997   0.886   4.334 -0.2267  0.5636 -0.1813
 5412WAT      O22353   4.550   2.545   6.929 -0.1530 -0.0326  0.2895
 5412WAT     H122354   4.486   2.603   6.917 -1.1848 -1.0338  0.6706
 5412WAT     H222355   4.602   2.583   6.988 -1.2464  0.1914  1.1479
 5412WAT    EPW22356   4.548   2.559   6.936 -0.0714  0.0138  0.1420
 5413WAT      O22357   2.306   6.837   3.214  0.1670  0.1994 -0.0773
 5413WAT     H122358   2.356   6.808   3.279 -0.6315 -0.0081  0.4638
 5413WAT     H222359   2.325   6.784   3.147 -0.0033 -0.4748  0.3976
 5413WAT    EPW22360   2.316   6.825   3.213 -0.1264 -0.1513 -0.3570
 5414WAT      O22361   1.811   1.540   6.697 -0.0407 -0.5198 -0.1987
 5414WAT     H122362   1.889   1.561   6.729 -0.8235  1.7664  0.3737
 5414WAT     H222363   1.820   1.551   6.611  0.2664 -0.2857 -0.1348
 5414WAT    EPW22364   1.824   1.544   6.689  0.1258 -0.4588  0.1261
 5415WAT      O22365   6.647   1.436   6.897 -0.1035  0.4899 -0.2101
 5415WAT     H122366   6.697   1.431   6.826 -0.1245  1.8079 -0.3419
 5415WAT     H222367   6.607   1.359   6.900  0.6377  0.0606 -1.0744
 5415WAT    EPW22368   6.649   1.424   6.887 -0.3743  0.6467 -0.2861
 5416WAT      O22369   1.948   1.127   3.363  0.1889  0.4328  0.0282
 5416WAT     H122370   1.914   1.086   3.433 -0.5613  0.9368 -0.0279
 5416WAT     H222371   2.031   1.098   3.361  0.5222  1.1534  1.7206
 5416WAT    EPW22372   1.955   1.116   3.373  0.3785 -0.2715  0.3323
 5417WAT      O22373   6.059   3.605   2.449 -0.0360  0.8222 -0.0043
 5417WAT     H122374   6.096   3.608   2.528 -0.8308  1.0270  0.3779
 5417WAT     H222375   6.016   3.681   2.444  0.2253  0.9294 -0.7467
 5417WAT    EPW22376   6.058   3.617   2.460 -0.4826 -0.0368 -0.7680
 5418WAT      O22377   5.591   7.020   2.996  0.0376  0.2467  0.2296
 5418WAT     H122378   5.671   7.010   2.962  0.1541  1.4035  0.1241
 5418WAT     H222379   5.606   7.069   3.067 -0.6495  0.9975 -0.1377
 5418WAT    EPW22380   5.605   7.026   3.002  0.6862 -0.1408  0.1213
 5419WAT      O22381   0.379   1.933   3.224  0.6597 -0.1443  0.4549
 5419WAT     H122382   0.366   1.850   3.201  0.2462  0.2207 -0.6759
 5419WAT     H222383   0.343   1.938   3.303 -0.6459 -0.6805 -0.0912
 5419WAT    EPW22384   0.372   1.922   3.232 -0.0396  0.0096  0.2690
 5420WAT      O22385   4.691   4.479   1.338  0.3484  0.0282  0.0186
 5420WAT     H122386   4.617   4.433   1.344  0.5364 -0.3067 -0.1922
 5420WAT     H222387   4.707   4.481   1.252  0.6596 -0.0222  0.0742
 5420WAT    EPW22388   4.682   4.472   1.326  0.0530 -0.5875 -0.5857
 5421WAT      O22389   7.496   6.314   0.234 -0.4074 -0.1945  0.2218
 5421WAT     H122390   7.493   6.229   0.217 -0.8147  0.1234 -1.4122
 5421WAT     H222391   7.443   6.322   0.303 -1.9168 -1.0168 -0.7850
 5421WAT    EPW22392   7.488   6.303   0.242  0.2297 -0.4175  0.5928
 5422WAT      O22393   3.825   1.182   1.100 -0.4494  0.2198  0.6487
 5422WAT     H122394   3.886   1.182   1.162 -0.3378  1.9331  0.5785
 5422WAT     H222395   3.812   1.267   1.083 -2.3031 -0.1135  0.1194
 5422WAT    EPW22396   3.832   1.195   1.107 -0.0233 -0.0561 -0.4808
 5423WAT      O22397   4.592   2.417   1.485 -0.0192  0.3931  0.5107
 5423WAT     H122398   4.548   2.352   1.522 -2.2575  0.6713 -1.4209
 5423WAT     H222399   4.549   2.489   1.509  1.4054  1.0427  1.2430
 5423WAT    EPW22400   4.579   2.418   1.494  0.6772 -0.0547  0.6085
 5424WAT      O22401   3.496   2.163   5.630 -0.3409 -0.3791 -0.4556
 5424WAT     H122402   3.541   2.127   5.696  1.0563 -0.5988 -1.4672
 5424WAT     H222403   3.511   2.248   5.639 -0.6444 -0.3584 -0.1452
 5424WAT    EPW22404   3.505   2.170   5.641  0.5515  0.8005  0.2790
 5425WAT      O22405   4.424   6.084   4.963 -0.2055 -0.2446 -0.4287
 5425WAT     H122406   4.409   6.106   5.046 -0.0669  3.0313 -1.1556
 5425WAT     H222407   4.494   6.032   4.968  0.5248  0.8262  1.4550
 5425WAT    EPW22408   4.432   6.079   4.976  0.3665 -0.2190 -0.2480
 5426WAT      O22409   3.982   4.396   0.252 -0.1163 -0.0748  0.0126
 5426WAT     H122410   4.022   4.473   0.242 -1.2581  0.4927 -0.2981
 5426WAT     H222411   4.026   4.343   0.198  0.0182  0.6095 -0.5603
 5426WAT    EPW22412   3.994   4.399   0.243  0.5111  0.1005  0.1087
 5427WAT      O22413   3.842   1.394   7.431  0.1285  0.3955  0.8476
 5427WAT     H122414   3.873   1.461   7.384  0.2373  0.0724  0.4498
 5427WAT     H222415   3.758   1.416   7.443  0.0295  0.3698  0.2764
 5427WAT    EPW22416   3.834   1.407   7.426  0.2103  0.2792  0.2309
 5428WAT      O22417   2.955   4.023   0.581 -0.1570 -0.0868  0.4744
 5428WAT     H122418   2.928   4.079   0.642  1.7302 -0.1684  1.4685
 5428WAT     H222419   2.950   3.946   0.622  1.0953 -0.1445  0.5698
 5428WAT    EPW22420   2.950   4.020   0.596 -0.6226  0.1623 -0.3364
 5429WAT      O22421   1.015   0.858   6.865 -0.6704  0.0125 -0.3474
 5429WAT     H122422   1.097   0.832   6.851 -0.3695  1.1389 -0.7369
 5429WAT     H222423   0.968   0.784   6.854  0.3554 -0.8735  0.9258
 5429WAT    EPW22424   1.020   0.843   6.861  0.9465  0.1658  0.0995
 5430WAT      O22425   3.485   1.864   6.449  0.4084  0.3208 -0.0824
 5430WAT     H122426   3.443   1.796   6.483  1.0318 -0.3615 -0.6379
 5430WAT     H222427   3.539   1.828   6.390 -2.4962  1.5353 -3.9421
 5430WAT    EPW22428   3.487   1.849   6.445  0.3068  0.0637 -0.6670
 5431WAT      O22429   3.129   6.555   4.685 -0.0217 -0.1238  0.3564
 5431WAT     H122430   3.172   6.590   4.752 -0.0991  0.9613 -0.1263
 5431WAT     H222431   3.078   6.494   4.721  0.1898  0.2109  1.2318
 5431WAT    EPW22432   3.128   6.551   4.700 -0.1342  0.0888  0.0855
 5432WAT      O22433   7.284   6.374   3.454 -0.1861 -0.3401  0.3620
 5432WAT     H122434   7.309   6.352   3.534 -1.6252 -0.8142  0.7091
 5432WAT     H222435   7.244   6.451   3.466  0.7940  0.2652 -0.1315
 5432WAT    EPW22436   7.282   6.382   3.467  0.2146 -0.0194  0.0341
 5433WAT      O22437   0.194   0.191   4.476  0.2260  0.1592  0.2636
 5433WAT     H122438   0.255   0.236   4.432  0.7761 -1.4079 -0.6452
 5433WAT     H222439   0.120   0.220   4.442  0.5223  0.8681  0.1902
 5433WAT    EPW22440   0.192   0.202   4.465 -0.9189 -0.3884  0.4935
 5434WAT      O22441   5.639   0.856   0.352 -0.1316 -0.7982 -0.4090
 5434WAT     H122442   5.598   0.925   0.320  0.9272 -0.7120 -1.6834
 5434WAT     H222443   5.697   0.890   0.408  1.0610 -0.5015 -1.7486
 5434WAT    EPW22444   5.642   0.871   0.356  0.8739  0.4313 -0.3379
 5435WAT      O22445   7.066   6.654   5.355 -0.4907  0.2975 -0.2028
 5435WAT     H122446   7.062   6.633   5.440  0.8971  1.6023  0.2379
 5435WAT     H222447   7.018   6.727   5.350  0.4046  0.8967 -0.2739
 5435WAT    EPW22448   7.058   6.662   5.367 -0.0507  0.2074  0.2450
 5436WAT      O22449   7.170   6.326   2.897  0.3322 -0.2121  0.1305
 5436WAT     H122450   7.252   6.326   2.925  0.0384  1.0301  1.0983
 5436WAT     H222451   7.161   6.248   2.859  1.9543 -0.3530 -0.0356
 5436WAT    EPW22452   7.181   6.314   2.895 -0.0011 -0.7832 -0.4099
 5437WAT      O22453   3.712   6.935   6.010  0.2579  0.1849 -0.1358
 5437WAT     H122454   3.628   6.950   5.992 -0.0115 -1.0039  0.0388
 5437WAT     H222455   3.709   6.881   6.078  1.2027  1.1591  0.7145
 5437WAT    EPW22456   3.699   6.929   6.017 -0.1040  0.5346  0.1777
 5438WAT      O22457   2.287   1.403   7.559 -0.0319 -0.5401  0.2890
 5438WAT     H122458   2.298   1.367   7.637  0.6817 -4.4692 -1.3884
 5438WAT     H222459   2.258   1.337   7.509 -0.6968  1.7943 -2.7554
 5438WAT    EPW22460   2.284   1.388   7.563  0.5795  0.4369  0.1203
 5439WAT      O22461   6.437   4.793   5.530  0.2883  0.4168 -0.0040
 5439WAT     H122462   6.387   4.728   5.499 -2.1173  2.2835 -0.3138
 5439WAT     H222463   6.397   4.816   5.604  0.6931  1.9770 -0.2418
 5439WAT    EPW22464   6.424   4.786   5.536  0.1724 -0.5051 -0.0340
 5440WAT      O22465   3.013   5.243   3.011  0.1165 -0.6219  0.1864
 5440WAT     H122466   2.972   5.169   3.035  0.9389 -0.7387  1.3191
 5440WAT     H222467   3.081   5.247   3.065  0.7735  0.3462 -0.6778
 5440WAT    EPW22468   3.017   5.232   3.023  0.8771 -0.3002 -0.1699
 5441WAT      O22469   2.259   6.101   1.597 -0.3778  0.1385 -0.0739
 5441WAT     H122470   2.313   6.150   1.644 -0.1253  0.8424 -1.0745
 5441WAT     H222471   2.303   6.084   1.524 -1.1364 -0.0776 -0.5034
 5441WAT    EPW22472   2.273   6.105   1.593 -0.5354  0.4293 -0.2020
 5442WAT      O22473   1.873   5.923   0.995  0.5067  0.0197 -0.2575
 5442WAT     H122474   1.809   5.901   1.051  1.3909 -0.6994  0.5131
 5442WAT     H222475   1.926   5.973   1.043  1.4605 -0.8919 -0.3276
 5442WAT    EPW22476   1.871   5.927   1.011  0.7193 -0.5123  0.8726
 5443WAT      O22477   6.603   0.258   6.991 -0.5678  0.0300  0.0479
 5443WAT     H122478   6.578   0.327   7.038 -0.5443 -0.1017  0.2555
 5443WAT     H222479   6.653   0.293   6.928  0.3926  0.1001  0.8160
 5443WAT    EPW22480   6.607   0.273   6.989  0.3329 -0.0300 -0.2518
 5444WAT      O22481   1.486   7.267   6.886  0.3366 -0.0187 -0.0420
 5444WAT     H122482   1.559   7.270   6.933  0.1122 -0.2788  0.3225
 5444WAT     H222483   1.449   7.345   6.900  1.0863  0.5539 -1.1085
 5444WAT    EPW22484   1.491   7.279   6.895 -0.1483  0.0939  0.8592
 5445WAT      O22485   5.112   0.554   0.024  0.1902  0.4003 -0.3755
 5445WAT     H122486   5.038   0.518   0.050  0.2803  1.5703  1.6944
 5445WAT     H222487   5.172   0.492   0.038 -0.0477  0.3485  0.4099
 5445WAT    EPW22488   5.110   0.540   0.030 -0.1583 -0.4042 -0.0827
 5446WAT      O22489   4.088   5.819   2.853  0.2547 -0.0571  0.2871
 5446WAT     H122490   4.162   5.793   2.890  0.7870  0.0543 -0.6750
 5446WAT     H222491   4.104   5.902   2.831  0.6210 -0.6299 -1.8131
 5446WAT    EPW22492   4.101   5.828   2.855  0.1135  0.7555 -0.3351
 5447WAT      O22493   6.093   1.137   6.924 -0.4245  0.4098  0.2496
 5447WAT     H122494   6.009   1.132   6.945 -0.9662 -0.4832 -1.8130
 5447WAT     H222495   6.103   1.072   6.866  1.1673  1.7963 -1.1352
 5447WAT    EPW22496   6.082   1.127   6.918  0.1741 -0.4570 -0.0171
 5448WAT      O22497   0.334   0.483   5.561 -0.3827 -0.2991 -0.4275
 5448WAT     H122498   0.272   0.448   5.611 -1.0394 -0.6596 -1.4761
 5448WAT     H222499   0.348   0.422   5.500  1.3616 -0.4439  0.0667
 5448WAT    EPW22500   0.327   0.469   5.560  0.3825  0.0234  0.3292
 5449WAT      O22501   5.989   4.568   1.936  0.3495 -0.8494 -0.3985
 5449WAT     H122502   6.042   4.583   2.003 -3.8869  1.9835  2.8638
 5449WAT     H222503   5.961   4.648   1.914 -0.7656 -1.9567 -3.6490
 5449WAT    EPW22504   5.993   4.582   1.942  0.3106  0.9777  0.1631
 5450WAT      O22505   4.160   3.836   2.811 -0.0799  0.0399  0.2782
 5450WAT     H122506   4.226   3.800   2.769 -0.2724  0.3501 -0.3024
 5450WAT     H222507   4.198   3.878   2.878  0.3604  0.6094 -0.3209
 5450WAT    EPW22508   4.175   3.837   2.815  0.9282 -0.0358 -0.1012
 5451WAT      O22509   0.429   6.012   4.877 -0.3080 -0.9234  0.1141
 5451WAT     H122510   0.384   5.999   4.951 -2.6213 -1.6787 -1.3264
 5451WAT     H222511   0.419   5.937   4.834 -0.4537  0.0895 -1.6909
 5451WAT    EPW22512   0.421   5.999   4.882 -0.1149 -0.7005 -0.4899
 5452WAT      O22513   0.811   6.390   5.983  0.1358 -0.1746  0.5695
 5452WAT     H122514   0.885   6.436   5.984  0.2796 -0.4076  0.8374
 5452WAT     H222515   0.817   6.341   6.055 -0.5721  0.2750  0.9458
 5452WAT    EPW22516   0.823   6.390   5.994 -0.2315 -0.4535 -0.7600
 5453WAT      O22517   2.685   2.271   1.827 -0.4825 -0.1612 -0.0086
 5453WAT     H122518   2.749   2.329   1.815  1.8435 -2.1280  1.8410
 5453WAT     H222519   2.688   2.223   1.755 -0.1864  0.0209 -0.1226
 5453WAT    EPW22520   2.695   2.273   1.814  0.1755 -0.0443 -0.0973
 5454WAT      O22521   6.492   2.672   2.547  0.0083  0.0165 -0.2869
 5454WAT     H122522   6.577   2.688   2.541 -0.0030  0.3977  0.3806
 5454WAT     H222523   6.456   2.751   2.542 -0.3278 -0.1624 -0.8042
 5454WAT    EPW22524   6.499   2.686   2.546  0.6861  0.1632 -0.1621
 5455WAT      O22525   5.067   2.155   6.537 -0.0536  0.4620  0.1341
 5455WAT     H122526   5.048   2.087   6.486 -0.2485  1.0221 -0.5556
 5455WAT     H222527   5.141   2.131   6.576 -1.3438 -1.1364  1.7313
 5455WAT    EPW22528   5.075   2.142   6.535 -0.0183 -0.0155 -0.2853
 5456WAT      O22529   3.507   5.364   1.678  0.5631 -0.0761  0.0891
 5456WAT     H122530   3.422   5.363   1.658  0.3026  1.5876  0.9694
 5456WAT     H222531   3.536   5.439   1.643  0.9290  0.9642  2.4735
 5456WAT    EPW22532   3.499   5.375   1.670 -0.0699 -0.3517 -0.4809
 5457WAT      O22533   2.268   1.213   4.887  0.2762 -0.2207  0.6435
 5457WAT     H122534   2.242   1.280   4.837  0.6630 -0.8068 -0.3775
 5457WAT     H222535   2.193   1.175   4.910 -0.1590  1.8970  3.2807
 5457WAT    EPW22536   2.253   1.218   4.883  0.4708 -0.0139 -0.2596
 5458WAT      O22537   2.109   0.314   0.172 -0.0726 -0.0677 -0.3365
 5458WAT     H122538   2.083   0.296   0.091  0.7389 -0.4371 -0.5234
 5458WAT     H222539   2.190   0.342   0.162 -0.3710  1.0552  0.2413
 5458WAT    EPW22540   2.117   0.315   0.159  0.5163  0.5805  0.0559
 5459WAT      O22541   1.421   5.404   7.252 -0.4050 -0.9701 -0.0779
 5459WAT     H122542   1.376   5.474   7.228 -0.2867 -1.1206 -0.7612
 5459WAT     H222543   1.484   5.398   7.191  0.4762 -0.8280  0.7857
 5459WAT    EPW22544   1.424   5.413   7.239 -0.1789  0.1043  0.4598
 5460WAT      O22545   5.414   2.761   1.743  0.3797 -0.2483 -0.1530
 5460WAT     H122546   5.411   2.785   1.659  0.7913 -0.6661 -0.2915
 5460WAT     H222547   5.330   2.754   1.765  0.2404 -1.7335 -1.0034
 5460WAT    EPW22548   5.401   2.763   1.734  0.3038 -0.0313  0.0739
 5461WAT      O22549   3.240   7.578   5.343  0.2537 -0.3509  0.0891
 5461WAT     H122550   3.274   7.499   5.331 -0.4797 -0.5022 -1.2040
 5461WAT     H222551   3.296   7.631   5.304  1.4975 -0.0248  2.1877
 5461WAT    EPW22552   3.253   7.574   5.335  0.2381 -0.0569  0.6361
 5462WAT      O22553   5.031   0.738   3.530 -0.8944 -0.1750  0.2295
 5462WAT     H122554   4.995   0.797   3.584  0.2601  1.3879 -0.6571
 5462WAT     H222555   5.032   0.778   3.453  0.7193 -1.0135 -0.2284
 5462WAT    EPW22556   5.026   0.753   3.527 -0.2002  0.2100 -0.1777
 5463WAT      O22557   7.319   4.241   1.137  0.3182 -0.3780 -0.1878
 5463WAT     H122558   7.359   4.295   1.193 -0.7059  0.9440 -0.6821
 5463WAT     H222559   7.347   4.269   1.059  0.2223 -0.9535 -0.4294
 5463WAT    EPW22560   7.329   4.253   1.133  0.4190  0.6058 -0.5335
 5464WAT      O22561   1.151   5.435   3.549 -0.2035  0.2434 -0.2779
 5464WAT     H122562   1.202   5.483   3.497 -1.3593  1.1065 -0.6593
 5464WAT     H222563   1.070   5.458   3.525 -0.7819  0.6106  1.8192
 5464WAT    EPW22564   1.147   5.446   3.538  0.5675 -0.2852  0.5526
 5465WAT      O22565   5.071   5.334   2.831  0.0815  0.0843 -0.0510
 5465WAT     H122566   5.090   5.313   2.749  0.7216 -0.5435  0.2549
 5465WAT     H222567   4.987   5.358   2.827  0.3409  0.8878 -1.0403
 5465WAT    EPW22568   5.061   5.335   2.818  0.0411 -0.2679 -0.1493
 5466WAT      O22569   6.708   4.817   4.171  0.1682 -0.1277 -0.0166
 5466WAT     H122570   6.746   4.757   4.119 -0.0404  0.0954 -0.4305
 5466WAT     H222571   6.645   4.850   4.121 -0.6808 -0.5928  0.7114
 5466WAT    EPW22572   6.704   4.813   4.156  0.3185  0.3339  0.0133
 5467WAT      O22573   0.942   6.384   1.342 -0.0130 -0.1791 -0.1496
 5467WAT     H122574   0.972   6.376   1.424  0.0479 -1.1385 -0.2538
 5467WAT     H222575   0.885   6.319   1.335  0.1368 -0.2336 -0.9441
 5467WAT    EPW22576   0.938   6.373   1.353  0.3931 -0.1042 -0.0898
 5468WAT      O22577   7.314   6.133   5.772 -0.0759 -0.2269  0.5016
 5468WAT     H122578   7.308   6.203   5.719 -1.0292 -0.2397  0.5845
 5468WAT     H222579   7.238   6.093   5.762 -1.0102  0.6519  3.1042
 5468WAT    EPW22580   7.302   6.138   5.763  0.3671  0.5734  0.3177
 5469WAT      O22581   6.512   5.790   6.355  0.2164  0.1096 -0.0566
 5469WAT     H122582   6.450   5.815   6.299  0.6367 -0.8835 -0.9890
 5469WAT     H222583   6.480   5.815   6.433 -0.7691  0.7263 -0.6390
 5469WAT    EPW22584   6.498   5.798   6.359  0.2116  0.1727 -0.2553
 5470WAT      O22585   1.304   6.634   2.771  0.4574 -0.0889 -0.0179
 5470WAT     H122586   1.223   6.641   2.738  0.4329 -1.7373 -0.3818
 5470WAT     H222587   1.294   6.662   2.853  0.0007  1.7494 -0.6498
 5470WAT    EPW22588   1.290   6.639   2.778 -0.1112 -0.0053 -0.0571
 5471WAT      O22589   4.165   1.418   5.973 -0.1180  0.0903  0.6768
 5471WAT     H122590   4.218   1.369   6.022 -1.3625 -1.5781  0.4350
 5471WAT     H222591   4.177   1.387   5.892  0.8000  1.8122  0.0846
 5471WAT    EPW22592   4.175   1.406   5.968 -0.2729  0.1886  0.2391
 5472WAT      O22593   4.054   5.776   0.903 -0.3269 -0.2912 -0.0553
 5472WAT     H122594   4.080   5.855   0.875 -1.6662  0.2536  0.1474
 5472WAT     H222595   4.128   5.735   0.923  0.4660  0.5015 -1.2528
 5472WAT    EPW22596   4.069   5.782   0.902 -0.0408  0.2930  0.2468
 5473WAT      O22597   1.863   2.616   2.753  0.4101  0.3989 -0.4528
 5473WAT     H122598   1.881   2.531   2.763 -0.3129  0.3613  0.6049
 5473WAT     H222599   1.937   2.655   2.779  1.1358  0.1080 -1.9086
 5473WAT    EPW22600   1.877   2.609   2.758  0.6940  0.1699 -0.2497
 5474WAT      O22601   0.662   1.562   5.651  0.6730  0.4873  0.2940
 5474WAT     H122602   0.630   1.481   5.650  0.8480  0.4196 -0.6602
 5474WAT     H222603   0.607   1.606   5.599  0.1336  1.1694  1.4031
 5474WAT    EPW22604   0.649   1.556   5.643 -0.1200  0.4926  0.0577
 5475WAT      O22605   1.700   3.615   0.552  0.3147  0.3740 -0.4797
 5475WAT     H122606   1.702   3.622   0.639 -0.2198  2.2826 -0.5904
 5475WAT     H222607   1.712   3.697   0.524  2.4910 -0.4410 -2.2728
 5475WAT    EPW22608   1.702   3.628   0.561  0.0007 -0.1264  0.1189
 5476WAT      O22609   4.329   5.667   7.359  0.3146 -0.1891  0.1263
 5476WAT     H122610   4.376   5.706   7.296  1.9857 -1.0935  0.7640
 5476WAT     H222611   4.301   5.594   7.321  0.4056 -0.2112  0.1014
 5476WAT    EPW22612   4.332   5.662   7.344  0.3751 -0.0967 -0.1571
 5477WAT      O22613   1.684   0.045   1.798 -0.5320  0.5556 -0.1309
 5477WAT     H122614   1.614   0.097   1.797 -1.2343 -0.3206  0.8869
 5477WAT     H222615   1.701   0.031   1.713 -0.8270  1.7568 -0.4047
 5477WAT    EPW22616   1.676   0.051   1.785 -0.4543  0.6062 -0.4053
 5478WAT      O22617   4.897   6.999   1.059  0.1813 -0.5566  0.3770
 5478WAT     H122618   4.821   7.040   1.044 -0.6438 -1.4192  1.8781
 5478WAT     H222619   4.936   7.051   1.117 -0.1247 -1.0321  1.0244
 5478WAT    EPW22620   4.891   7.013   1.066 -0.4411  0.1296  0.6363
 5479WAT      O22621   1.995   0.559   6.327 -0.4240  0.1407 -0.2739
 5479WAT     H122622   1.969   0.639   6.348  0.3847 -0.1359  1.9999
 5479WAT     H222623   1.927   0.508   6.349  0.5506 -0.1881  2.2723
 5479WAT    EPW22624   1.981   0.563   6.333 -0.0944  0.3109 -0.6822
 5480WAT      O22625   2.005   2.006   4.223  0.3110 -0.5012 -0.2156
 5480WAT     H122626   2.047   1.954   4.278  0.5546 -0.0208  0.0590
 5480WAT     H222627   1.998   1.958   4.150  1.2972 -0.6107 -0.2529
 5480WAT    EPW22628   2.010   1.992   4.220 -0.1275  0.5633 -0.2736
 5481WAT      O22629   0.450   0.477   7.403  0.1422 -0.6927  0.0500
 5481WAT     H122630   0.370   0.466   7.436  0.1917 -0.6823  0.1737
 5481WAT     H222631   0.446   0.556   7.367 -0.2701 -1.1786 -1.0047
 5481WAT    EPW22632   0.438   0.487   7.403 -0.9887  0.2160  0.0823
 5482WAT      O22633   2.760   4.772   6.084 -0.0101  0.3568  0.0032
 5482WAT     H122634   2.759   4.745   6.001  0.7805  1.2864 -0.3349
 5482WAT     H222635   2.726   4.852   6.080  0.0580  0.4235  0.5671
 5482WAT    EPW22636   2.755   4.780   6.071  0.1971  0.6367  0.5563
 5483WAT      O22637   3.158   6.118   1.049 -0.2650  0.0184 -0.2455
 5483WAT     H122638   3.157   6.195   1.090 -1.3377 -0.7207  1.2149
 5483WAT     H222639   3.205   6.067   1.101  0.5244 -0.3225 -1.2568
 5483WAT    EPW22640   3.165   6.122   1.063 -0.7059  0.1517  0.3835
 5484WAT      O22641   2.175   1.304   7.250  0.2115  0.2773 -0.1743
 5484WAT     H122642   2.196   1.236   7.200 -1.4873 -0.1318 -0.3996
 5484WAT     H222643   2.140   1.267   7.321 -0.3541  0.8860 -0.1243
 5484WAT    EPW22644   2.173   1.289   7.253  0.2013  0.3858  0.3781
 5485WAT      O22645   0.968   3.005   4.041  0.0412 -0.6792  0.1783
 5485WAT     H122646   0.911   2.968   4.096  0.0689  1.3400  1.6661
 5485WAT     H222647   1.046   2.984   4.074  0.0769 -0.2497  0.3702
 5485WAT    EPW22648   0.971   2.996   4.054  0.3527  0.2759 -0.7028
 5486WAT      O22649   0.389   5.804   1.531  0.3019 -0.2692  0.2022
 5486WAT     H122650   0.326   5.809   1.471  0.1527 -1.2071  0.2617
 5486WAT     H222651   0.431   5.730   1.510  0.9895  0.0175  0.5405
 5486WAT    EPW22652   0.386   5.794   1.519 -0.0511 -0.0943  0.7445
 5487WAT      O22653   0.137   4.192   1.824 -0.0075  0.2070 -0.4132
 5487WAT     H122654   0.104   4.174   1.902  1.8425  0.8045  0.5615
 5487WAT     H222655   0.171   4.116   1.798  0.4124  0.2884 -0.1032
 5487WAT    EPW22656   0.137   4.178   1.832 -0.3947  0.5378 -0.1438
 5488WAT      O22657   4.224   4.258   1.584  0.5039 -0.1418  0.0872
 5488WAT     H122658   4.182   4.187   1.612  1.8743 -1.0755 -0.1223
 5488WAT     H222659   4.299   4.256   1.629  1.1244  0.4281 -0.9009
 5488WAT    EPW22660   4.229   4.247   1.595  0.1256 -0.0327  0.8524
 5489WAT      O22661   7.504   6.892   5.170 -0.0686  0.0295  0.4469
 5489WAT     H122662   7.519   6.927   5.249  0.1139  2.1290 -0.4559
 5489WAT     H222663   7.470   6.958   5.125  0.2075 -1.0200 -1.3723
 5489WAT    EPW22664   7.501   6.907   5.175 -0.2567 -0.3986 -0.3428
 5490WAT      O22665   6.721   6.984   6.981 -0.3407  0.3521 -0.0866
 5490WAT     H122666   6.805   7.005   6.990 -0.9224  2.3788  1.2845
 5490WAT     H222667   6.724   6.906   6.941  2.1665  0.2276  0.1521
 5490WAT    EPW22668   6.734   6.976   6.976  0.6033 -0.1790 -0.3730
 5491WAT      O22669   2.532   2.589   1.191 -0.5020 -0.3425  0.8608
 5491WAT     H122670   2.490   2.665   1.202 -0.2716 -0.0467 -0.2025
 5491WAT     H222671   2.470   2.536   1.161 -0.6013 -0.5001  1.3439
 5491WAT    EPW22672   2.517   2.592   1.188  0.2121 -0.1283  0.5110
 5492WAT      O22673   2.681   4.637   3.276  0.4576 -0.5958  0.3674
 5492WAT     H122674   2.661   4.627   3.192  0.2129 -0.3748  0.3983
 5492WAT     H222675   2.604   4.652   3.314  0.6675  0.2562  0.4897
 5492WAT    EPW22676   2.667   4.638   3.269 -0.7853 -0.0321 -0.8720
 5493WAT      O22677   2.331   7.016   2.882  0.2973  0.3485 -0.0879
 5493WAT     H122678   2.261   6.987   2.837  0.0982  0.9961 -0.2169
 5493WAT     H222679   2.295   7.051   2.954  0.5726 -0.1858  0.3105
 5493WAT    EPW22680   2.315   7.017   2.886  0.2892  0.1990  0.4761
 5494WAT      O22681   0.068   5.321   2.465 -0.0852 -0.0369  0.4643
 5494WAT     H122682   0.080   5.250   2.514 -1.6751 -0.3428  0.4454
 5494WAT     H222683   0.150   5.344   2.443  0.4658 -3.4593 -1.7953
 5494WAT    EPW22684   0.082   5.314   2.469 -0.1911  0.9584 -0.1472
 5495WAT      O22685   1.310   4.290   1.393 -0.4733 -0.1297 -0.2199
 5495WAT     H122686   1.272   4.334   1.327  1.0874 -0.2007 -1.2284
 5495WAT     H222687   1.372   4.243   1.353 -0.6558 -1.5813  1.1122
 5495WAT    EPW22688   1.314   4.290   1.377 -0.4986 -0.1181  0.1908
 5496WAT      O22689   2.191   2.423   4.840  0.4528 -0.3949  0.2622
 5496WAT     H122690   2.105   2.430   4.857  0.1440  0.6090 -1.5368
 5496WAT     H222691   2.223   2.391   4.915 -1.4788 -0.8294  0.9810
 5496WAT    EPW22692   2.183   2.419   4.854 -0.3201  0.2115 -0.6408
 5497WAT      O22693   0.587   5.876   4.316  1.1182 -0.0176  0.1772
 5497WAT     H122694   0.647   5.920   4.361  1.8138  0.0921 -0.8318
 5497WAT     H222695   0.610   5.793   4.328  1.0734 -0.0084  0.3327
 5497WAT    EPW22696   0.599   5.870   4.325  0.1866  0.4405  0.7190
 5498WAT      O22697   3.026   5.772   7.025  0.0380  0.7471 -0.1958
 5498WAT     H122698   3.008   5.799   7.106  0.9049 -0.6012  0.4753
 5498WAT     H222699   3.090   5.825   6.999  2.3669 -1.0752  1.4469
 5498WAT    EPW22700   3.033   5.784   7.033 -0.3408 -0.7395  0.0818
 5499WAT      O22701   5.882   0.876   6.159  0.1742 -0.4234  0.8428
 5499WAT     H122702   5.922   0.954   6.160  1.5425 -1.0830  2.5341
 5499WAT     H222703   5.805   0.893   6.121  1.4779  1.1732 -1.3221
 5499WAT    EPW22704   5.877   0.890   6.154 -0.4072 -0.0311 -0.5496
 5500WAT      O22705   6.468   3.528   7.436  0.0564  0.5084 -0.1236
 5500WAT     H122706   6.395   3.498   7.398  0.4276  0.0353 -0.4759
 5500WAT     H222707   6.479   3.607   7.400 -0.8874  1.0669  0.7561
 5500WAT    EPW22708   6.459   3.535   7.425 -0.2269 -0.2685 -0.0417
 5501WAT      O22709   6.064   1.506   6.053  0.0072 -0.3433  0.4868
 5501WAT     H122710   6.096   1.425   6.065 -0.1208 -0.5482 -0.5070
 5501WAT     H222711   6.133   1.551   6.023  0.5647  0.3934  2.7067
 5501WAT    EPW22712   6.079   1.501   6.050 -0.0344  0.1628  0.3628
 5502WAT      O22713   5.373   4.268   2.375  0.2461 -0.4344 -0.0965
 5502WAT     H122714   5.420   4.342   2.381 -0.0948  0.0330 -2.3089
 5502WAT     H222715   5.419   4.211   2.423  0.6625  1.1054  1.4457
 5502WAT    EPW22716   5.387   4.271   2.383 -0.0431  0.7217  0.6121
 5503WAT      O22717   4.112   2.284   6.041 -0.9471  0.1571  0.4666
 5503WAT     H122718   4.070   2.312   6.113 -0.5510  1.1387  0.3370
 5503WAT     H222719   4.100   2.349   5.984 -0.5281 -0.2308 -0.0736
 5503WAT    EPW22720   4.104   2.298   6.044 -0.1923 -0.2378 -0.6438
 5504WAT      O22721   0.583   0.863   3.211  0.0070 -0.5812  0.2245
 5504WAT     H122722   0.628   0.933   3.182 -1.9441  0.6700  0.0198
 5504WAT     H222723   0.593   0.867   3.298 -0.4292  0.2106  0.2458
 5504WAT    EPW22724   0.591   0.874   3.220  0.0821 -0.0545 -0.3418
 5505WAT      O22725   2.484   0.118   6.957 -0.1718 -0.1365  0.1726
 5505WAT     H122726   2.421   0.088   7.010 -1.1440  0.1952 -0.7531
 5505WAT     H222727   2.508   0.193   6.995  0.9597 -1.1121  1.4917
 5505WAT    EPW22728   2.478   0.125   6.971 -0.3572  0.6550 -0.4110
 5506WAT      O22729   3.724   6.911   0.295  0.0492 -0.3484  0.1994
 5506WAT     H122730   3.701   6.955   0.224  1.3158  0.8972  0.5294
 5506WAT     H222731   3.793   6.864   0.270  0.3191 -0.1332  0.5325
 5506WAT    EPW22732   3.731   6.910   0.281 -0.7466 -0.4386  0.3865
 5507WAT      O22733   1.155   7.123   4.894 -0.1241  0.2768 -0.3864
 5507WAT     H122734   1.101   7.186   4.866 -0.9280 -0.8673 -1.5119
 5507WAT     H222735   1.130   7.110   4.977 -0.7012  0.6725 -0.4896
 5507WAT    EPW22736   1.143   7.131   4.902 -0.1408 -0.1247  0.8623
 5508WAT      O22737   0.170   6.117   1.445 -0.4891 -0.1529  0.1625
 5508WAT     H122738   0.184   6.033   1.422 -0.9600  0.1055 -1.1885
 5508WAT     H222739   0.180   6.160   1.370 -0.6125  0.9706  0.7732
 5508WAT    EPW22740   0.173   6.111   1.430  0.3942  0.1706 -0.2847
 5509WAT      O22741   0.114   2.825   2.488 -0.2812  0.1306  0.5259
 5509WAT     H122742   0.050   2.784   2.445  2.6857 -3.6172 -0.9231
 5509WAT     H222743   0.103   2.799   2.570  0.3313 -2.1123 -0.0359
 5509WAT    EPW22744   0.103   2.815   2.494 -0.5398  0.3620  0.1279
 5510WAT      O22745   4.372   7.450   0.716 -0.2172  0.0365  0.0156
 5510WAT     H122746   4.417   7.417   0.783 -0.5931 -0.0738  0.2140
 5510WAT     H222747   4.347   7.380   0.671 -0.0624  0.1050 -0.1798
 5510WAT    EPW22748   4.375   7.435   0.719 -0.4619 -0.1584 -0.7979
 5511WAT      O22749   6.760   6.794   3.949  0.1336 -0.0687 -0.3560
 5511WAT     H122750   6.747   6.845   4.018 -1.2149 -0.7503 -0.0787
 5511WAT     H222751   6.701   6.821   3.891 -0.3685 -1.0753 -0.3357
 5511WAT    EPW22752   6.750   6.806   3.950 -0.2139 -0.1945  1.0132
 5512WAT      O22753   0.460   2.890   1.759  0.4270 -0.3361 -0.5083
 5512WAT     H122754   0.500   2.861   1.687 -1.5993  0.4622 -2.0644
 5512WAT     H222755   0.376   2.870   1.745 -0.5714  2.9225 -0.0692
 5512WAT    EPW22756   0.453   2.883   1.746 -0.0209  0.3682  0.1209
 5513WAT      O22757   4.771   0.771   6.124  0.0434  0.2348 -0.1316
 5513WAT     H122758   4.745   0.743   6.046 -0.2823  1.9596 -0.6917
 5513WAT     H222759   4.696   0.775   6.170  0.4618 -2.8842  1.0957
 5513WAT    EPW22760   4.756   0.767   6.119  0.7391  0.1245 -0.3804
 5514WAT      O22761   5.771   0.075   1.259 -0.5543 -0.6363 -0.2373
 5514WAT     H122762   5.794   0.078   1.174 -0.6265 -1.4036 -0.2909
 5514WAT     H222763   5.750   0.157   1.277  1.3636 -0.0534 -0.4233
 5514WAT    EPW22764   5.771   0.087   1.249 -0.1578  0.5090  0.1820
 5515WAT      O22765   7.526   0.956   5.938 -0.2190 -0.0668 -0.7458
 5515WAT     H122766   7.554   1.037   5.955  0.0074 -0.3102  0.1203
 5515WAT     H222767   7.586   0.925   5.883  0.3644 -0.0437 -0.1400
 5515WAT    EPW22768   7.539   0.963   5.932  0.6821  0.2831 -0.3451
 5516WAT      O22769   5.775   2.115   2.039  0.1044 -0.0434 -0.3665
 5516WAT     H122770   5.852   2.143   2.070  0.9193 -1.1212 -1.3458
 5516WAT     H222771   5.774   2.144   1.957 -0.6747  0.1931 -0.2829
 5516WAT    EPW22772   5.786   2.123   2.031  0.0064  0.0407  0.5377
 5517WAT      O22773   5.320   7.245   5.741 -0.3887  0.3825 -0.0196
 5517WAT     H122774   5.340   7.171   5.700 -0.4397 -0.0745  0.7469
 5517WAT     H222775   5.368   7.305   5.700 -0.6611  0.0000 -0.9182
 5517WAT    EPW22776   5.330   7.243   5.729 -0.1360  0.0071  0.1715
 5518WAT      O22777   0.861   2.013   2.507 -0.1234 -0.2229 -0.8450
 5518WAT     H122778   0.800   1.981   2.560 -1.0920  1.1845 -1.0629
 5518WAT     H222779   0.920   2.047   2.562 -0.2690 -0.2748 -0.6572
 5518WAT    EPW22780   0.861   2.013   2.523 -0.3587  0.1671 -0.1148
 5519WAT      O22781   4.243   1.399   1.138  1.0258  0.3182  0.5141
 5519WAT     H122782   4.194   1.415   1.068 -0.6447 -1.2788  1.2146
 5519WAT     H222783   4.267   1.478   1.166  0.3282  1.0553 -0.8811
 5519WAT    EPW22784   4.239   1.413   1.132 -0.0095  0.4344  0.1415
 5520WAT      O22785   6.112   2.011   4.588 -1.0362 -0.2195 -0.4963
 5520WAT     H122786   6.120   1.924   4.583 -0.5676 -0.1118 -1.8041
 5520WAT     H222787   6.127   2.038   4.507 -1.1958  1.0936 -0.1067
 5520WAT    EPW22788   6.115   2.002   4.575  0.7737  0.5848  0.0991
 5521WAT      O22789   1.304   6.428   6.112  0.3052 -0.0197 -0.0834
 5521WAT     H122790   1.344   6.414   6.189  1.9211  0.3427 -0.8200
 5521WAT     H222791   1.361   6.397   6.053 -0.2538  1.0074 -1.2053
 5521WAT    EPW22792   1.319   6.421   6.115  0.1244 -0.0211  0.1320
 5522WAT      O22793   3.347   4.028   1.716  0.4349  0.7199  0.0707
 5522WAT     H122794   3.431   4.036   1.693  1.2180 -1.5860  1.7707
 5522WAT     H222795   3.324   3.952   1.680 -0.7041  0.9440  0.2944
 5522WAT    EPW22796   3.356   4.018   1.707  0.0995  0.5559 -0.0228
 5523WAT      O22797   5.208   1.579   0.775  0.3300 -0.3842 -0.4407
 5523WAT     H122798   5.177   1.599   0.855  1.2765  1.4323 -0.4959
 5523WAT     H222799   5.294   1.570   0.788  0.3203 -1.5423 -1.0236
 5523WAT    EPW22800   5.216   1.580   0.789  0.1958 -0.0012  0.2449
 5524WAT      O22801   2.825   6.901   5.705  0.4606 -0.1646 -0.1873
 5524WAT     H122802   2.822   6.835   5.648  0.5380  1.6685 -2.3938
 5524WAT     H222803   2.910   6.918   5.712  0.5779 -1.1151  1.4968
 5524WAT    EPW22804   2.837   6.894   5.698  0.4011  0.6301 -0.3494
 5525WAT      O22805   1.388   1.180   5.334  0.1135  0.1143  0.0362
 5525WAT     H122806   1.392   1.108   5.383  0.7843 -0.2600 -0.5427
 5525WAT     H222807   1.442   1.162   5.268 -0.8259  0.5669 -0.8840
 5525WAT    EPW22808   1.397   1.166   5.331 -0.2790 -0.1406  0.1717
 5526WAT      O22809   7.153   3.277   0.465 -0.6169  0.2961  0.2180
 5526WAT     H122810   7.066   3.270   0.453 -0.8950  1.3980  1.4509
 5526WAT     H222811   7.163   3.260   0.550  0.4119  0.0171  0.0456
 5526WAT    EPW22812   7.141   3.273   0.476  0.2344 -0.1322 -0.1381
 5527WAT      O22813   7.510   4.869   3.721  0.2615  0.5761 -0.1617
 5527WAT     H122814   7.472   4.944   3.696 -1.0566  0.5113  1.4193
 5527WAT     H222815   7.576   4.896   3.772 -1.4291  0.7833  2.1057
 5527WAT    EPW22816   7.514   4.884   3.725 -0.2261 -0.4074  0.8067
 5528WAT      O22817   0.445   6.305   1.887 -0.0683 -0.5348  0.0377
 5528WAT     H122818   0.383   6.354   1.850  0.9962 -0.2200 -1.4546
 5528WAT     H222819   0.409   6.225   1.888 -0.5527 -0.3440 -0.7280
 5528WAT    EPW22820   0.431   6.300   1.881 -0.1533  0.5637 -0.1844
 5529WAT      O22821   5.043   2.083   5.513 -0.6148 -0.0273 -0.3828
 5529WAT     H122822   4.964   2.050   5.532 -0.1102 -0.1590  1.8113
 5529WAT     H222823   5.084   2.017   5.473 -1.4047 -0.1594 -0.9895
 5529WAT    EPW22824   5.037   2.068   5.510 -0.1620 -0.2895 -0.2535
 5530WAT      O22825   3.179   2.528   5.948  0.3420 -0.3786  0.1390
 5530WAT     H122826   3.153   2.570   6.020  0.0120  0.0440 -0.2232
 5530WAT     H222827   3.109   2.531   5.895  0.7989 -0.0974 -0.4594
 5530WAT    EPW22828   3.165   2.534   5.951 -0.0886  0.7560 -0.4388
 5531WAT      O22829   6.551   1.564   2.841  0.4746 -0.3231 -0.1401
 5531WAT     H122830   6.610   1.499   2.846  0.4725 -0.4708 -1.6417
 5531WAT     H222831   6.475   1.524   2.858  0.8560  0.2739  4.3213
 5531WAT    EPW22832   6.549   1.549   2.844  0.4128 -0.2677 -0.1772
 5532WAT      O22833   2.586   2.157   6.110  0.3821 -1.0809  0.0968
 5532WAT     H122834   2.650   2.216   6.105 -0.7166  0.1661  0.2472
 5532WAT     H222835   2.582   2.138   6.195 -0.5263  0.1160  0.3470
 5532WAT    EPW22836   2.595   2.163   6.122  0.0141 -0.1163 -0.6858
 5533WAT      O22837   5.397   2.300   3.028  0.8638  0.5339  0.3682
 5533WAT     H122838   5.353   2.376   3.034  0.5528  0.4308 -0.3968
 5533WAT     H222839   5.353   2.257   2.966  0.6194 -0.5687  1.2861
 5533WAT    EPW22840   5.384   2.305   3.020  0.2681  0.0992  0.1558
 5534WAT      O22841   4.216   4.117   1.333 -0.0413  0.5132 -0.0791
 5534WAT     H122842   4.263   4.045   1.347 -1.0977 -0.0281  0.8892
 5534WAT     H222843   4.246   4.173   1.392 -0.9626 -0.0239  0.9292
 5534WAT    EPW22844   4.227   4.114   1.343  0.7169  0.0440  0.1941
 5535WAT      O22845   1.995   6.844   2.408 -0.0767  0.5700  0.0492
 5535WAT     H122846   2.012   6.805   2.484 -0.1999  1.1539  0.3786
 5535WAT     H222847   2.072   6.878   2.385  0.0393  0.1066 -0.2556
 5535WAT    EPW22848   2.009   6.843   2.416  0.1413 -0.3127 -0.3957
 5536WAT      O22849   2.111   6.284   3.253  0.4567 -0.4082 -0.3275
 5536WAT     H122850   2.037   6.312   3.216  0.6188  0.5840  0.0801
 5536WAT     H222851   2.083   6.226   3.313 -0.3172  2.1319  1.9868
 5536WAT    EPW22852   2.096   6.280   3.257 -0.1987 -1.1665  0.4828
 5537WAT      O22853   2.439   0.976   0.011 -0.4522  0.3670 -0.4507
 5537WAT     H122854   2.525   0.959   0.007 -0.3123  0.7262  0.8084
 5537WAT     H222855   2.436   1.058   0.039 -1.2210 -0.0042  0.5956
 5537WAT    EPW22856   2.451   0.986   0.014  0.0797  0.1586  0.2033
 5538WAT      O22857   3.361   4.664   5.720 -0.2409  0.1976  0.0649
 5538WAT     H122858   3.433   4.692   5.680  0.2766 -0.6742  0.3628
 5538WAT     H222859   3.336   4.595   5.672 -0.7682  0.3753  0.0769
 5538WAT    EPW22860   3.368   4.658   5.707  0.0717  0.3753 -0.3432
 5539WAT      O22861   4.814   3.923   0.097  0.0052  0.2541 -0.4030
 5539WAT     H122862   4.776   3.992   0.134 -1.4452 -1.1166  0.7934
 5539WAT     H222863   4.870   3.895   0.157 -0.4450 -0.4493 -0.3121
 5539WAT    EPW22864   4.817   3.929   0.111  0.2799  0.0899  0.2492
 5540WAT      O22865   3.830   1.244   2.417  0.4975  0.2764  0.4527
 5540WAT     H122866   3.824   1.183   2.355 -2.4015  1.3241 -0.4795
 5540WAT     H222867   3.914   1.269   2.413  0.8649 -1.0106 -1.7346
 5540WAT    EPW22868   3.842   1.239   2.407  0.1167 -0.2427  0.2479
 5541WAT      O22869   3.593   5.678   6.639 -0.3671 -0.7397 -0.2832
 5541WAT     H122870   3.634   5.724   6.576 -1.1895 -1.4065 -1.3313
 5541WAT     H222871   3.515   5.661   6.605 -1.1665 -0.3974  1.2692
 5541WAT    EPW22872   3.588   5.683   6.625 -0.1884  0.2002  0.2721
 5542WAT      O22873   2.528   2.175   2.051 -0.3479  0.0486  0.3694
 5542WAT     H122874   2.447   2.197   2.026 -0.6125  1.0698  1.9912
 5542WAT     H222875   2.576   2.190   1.980 -0.9982  3.1497  0.4563
 5542WAT    EPW22876   2.523   2.181   2.037 -0.2091  0.3320 -0.0107
 5543WAT      O22877   7.163   4.945   1.096  0.5004 -0.3157 -0.1514
 5543WAT     H122878   7.160   4.929   1.011  0.5300 -0.1646 -0.1821
 5543WAT     H222879   7.102   4.893   1.130 -1.0181  1.1444 -0.5037
 5543WAT    EPW22880   7.154   4.935   1.088  0.2011  0.4894  0.7321
 5544WAT      O22881   0.554   4.686   7.432 -0.0071  0.0770 -0.4792
 5544WAT     H122882   0.506   4.684   7.505  1.6636  0.8956  0.6913
 5544WAT     H222883   0.568   4.771   7.419  1.1772 -0.1436 -0.7566
 5544WAT    EPW22884   0.549   4.698   7.441  0.2057 -0.0547 -0.1039
 5545WAT      O22885   1.589   1.977   4.441 -0.0508  0.4605  0.2099
 5545WAT     H122886   1.512   1.964   4.403  0.7870 -0.8630 -1.1649
 5545WAT     H222887   1.642   1.996   4.375  1.4112 -1.6536  0.6487
 5545WAT    EPW22888   1.585   1.978   4.426  0.3739  0.0226 -0.4505
 5546WAT      O22889   1.175   0.599   1.299 -0.2792  0.1487 -0.0521
 5546WAT     H122890   1.246   0.550   1.288 -1.0151 -0.8522 -0.5002
 5546WAT     H222891   1.160   0.593   1.385  0.7844  1.2759  0.2440
 5546WAT    EPW22892   1.183   0.591   1.310 -0.3603 -0.2829 -0.5795
 5547WAT      O22893   7.518   7.366   5.014  0.0608 -0.1307 -0.3118
 5547WAT     H122894   7.562   7.350   5.087 -1.0359  1.0796  0.6851
 5547WAT     H222895   7.562   7.324   4.953  0.4527 -2.0613  1.1978
 5547WAT    EPW22896   7.531   7.358   5.016 -0.6183  0.4007 -0.5314
 5548WAT      O22897   2.209   6.977   4.258  0.0562  0.4315 -0.3061
 5548WAT     H122898   2.124   6.977   4.274 -0.1348  2.2866 -1.1215
 5548WAT     H222899   2.241   7.034   4.316  0.8233 -0.5010  0.2301
 5548WAT    EPW22900   2.201   6.986   4.269  0.2320  0.0243  0.4855
 5549WAT      O22901   0.790   5.688   7.117  0.0902 -0.3322  0.8968
 5549WAT     H122902   0.818   5.626   7.171 -0.0705 -1.5191 -0.3451
 5549WAT     H222903   0.802   5.654   7.038 -0.9141  0.8210  0.2113
 5549WAT    EPW22904   0.796   5.674   7.113  0.5790  0.6117  0.4086
 5550WAT      O22905   5.271   0.513   3.879 -0.0497  0.6950  0.1494
 5550WAT     H122906   5.330   0.565   3.916  1.1058  0.1028 -0.7844
 5550WAT     H222907   5.315   0.475   3.814 -1.0010 -1.0199  0.4393
 5550WAT    EPW22908   5.286   0.515   3.875 -0.3059  0.0881  0.7160
 5551WAT      O22909   4.161   2.502   2.874 -0.7388 -0.7259 -0.0650
 5551WAT     H122910   4.087   2.461   2.851  0.0687 -1.8534 -0.7928
 5551WAT     H222911   4.167   2.486   2.960 -1.5821 -0.2064  0.0949
 5551WAT    EPW22912   4.151   2.493   2.883 -0.3531 -0.0757  0.1888
 5552WAT      O22913   6.497   0.019   5.166  0.1478 -0.2449 -0.1104
 5552WAT     H122914   6.452  -0.021   5.104  0.0007 -1.7796  0.9181
 5552WAT     H222915   6.512   0.099   5.134 -1.7747 -0.2690 -1.1812
 5552WAT    EPW22916   6.493   0.025   5.152 -0.3346 -0.7929  0.2683
 5553WAT      O22917   3.010   4.098   1.007 -0.6736 -0.2404 -0.0271
 5553WAT     H122918   2.963   4.132   0.941  0.9337 -0.8725 -1.5856
 5553WAT     H222919   2.977   4.018   1.016 -1.2669  0.0359  0.3548
 5553WAT    EPW22920   2.998   4.091   0.998  0.7990 -0.9033  0.3139
 5554WAT      O22921   2.017   1.652   6.058 -0.9444 -0.4135  0.2192
 5554WAT     H122922   2.100   1.632   6.077  0.3627  1.1296 -2.9923
 5554WAT     H222923   1.989   1.583   6.013 -0.9093 -0.3158  0.0500
 5554WAT    EPW22924   2.025   1.639   6.054 -0.2142  0.5896 -0.2184
 5555WAT      O22925   3.931   7.206   5.770  0.6102  0.2391 -0.5327
 5555WAT     H122926   3.895   7.148   5.715 -0.5790  1.5433 -1.2011
 5555WAT     H222927   3.960   7.269   5.718  2.5537 -0.0443  0.1315
 5555WAT    EPW22928   3.930   7.207   5.755 -0.2244 -0.3065 -0.5733
 5556WAT      O22929   7.634   5.258   5.597  0.3170  0.7339  0.4272
 5556WAT     H122930   7.688   5.321   5.571 -0.8768  1.4402 -0.4409
 5556WAT     H222931   7.589   5.238   5.525  0.0359 -0.4833  0.9081
 5556WAT    EPW22932   7.635   5.264   5.582  0.5994 -0.7481 -0.3840
 5557WAT      O22933   2.817   0.433   5.811  0.3335  0.0458  0.2023
 5557WAT     H122934   2.768   0.493   5.770 -0.1806  0.5153  1.4783
 5557WAT     H222935   2.890   0.477   5.830 -0.1225  0.3438  1.3138
 5557WAT    EPW22936   2.820   0.449   5.808 -0.1483  0.3530  0.5272
 5558WAT      O22937   3.310   1.099   6.501  0.6821 -0.5807  0.1289
 5558WAT     H122938   3.278   1.037   6.553  1.9339  0.8243  2.7839
 5558WAT     H222939   3.256   1.166   6.513  0.4539 -0.5097 -1.1774
 5558WAT    EPW22940   3.297   1.100   6.510  0.5415  0.1007 -0.3404
 5559WAT      O22941   5.591   3.621   6.116 -0.2998  0.3192 -0.5841
 5559WAT     H122942   5.661   3.588   6.076 -0.4874 -0.4719 -0.2776
 5559WAT     H222943   5.625   3.659   6.187 -0.3329 -1.9282  0.7341
 5559WAT    EPW22944   5.607   3.622   6.121 -0.1098 -0.4642  0.0293
 5560WAT      O22945   5.150   6.151   0.847 -0.2717 -0.7384 -0.1776
 5560WAT     H122946   5.092   6.099   0.808 -1.1652 -0.0487  0.1947
 5560WAT     H222947   5.221   6.101   0.854 -1.4017 -2.2698  1.1037
 5560WAT    EPW22948   5.152   6.136   0.842 -0.0550  0.4188  0.0603
 5561WAT      O22949   1.003   1.340   2.421  0.2982  0.3069 -0.3393
 5561WAT     H122950   1.049   1.322   2.349 -0.0142  0.1059 -0.4903
 5561WAT     H222951   1.054   1.312   2.486 -0.1180 -1.0086 -0.5622
 5561WAT    EPW22952   1.017   1.333   2.420  0.4976  0.2662 -0.5704
 5562WAT      O22953   2.873   1.318   3.684  0.1273  0.2171 -0.3666
 5562WAT     H122954   2.865   1.355   3.606 -0.2974 -0.0441 -0.4513
 5562WAT     H222955   2.876   1.233   3.667 -1.4977  0.0433 -0.0302
 5562WAT    EPW22956   2.872   1.311   3.670 -0.3469 -0.4286  1.0007
 5563WAT      O22957   6.211   7.205   3.745  0.1089  0.0776 -0.3234
 5563WAT     H122958   6.210   7.161   3.821  1.0421 -1.5612 -1.2029
 5563WAT     H222959   6.222   7.288   3.770 -2.2751 -0.0268  1.4440
 5563WAT    EPW22960   6.212   7.211   3.760  0.1219  0.6071 -0.6629
 5564WAT      O22961   1.981   2.654   6.865  0.2992  0.0330  0.7875
 5564WAT     H122962   1.913   2.709   6.863 -0.8193 -1.3238 -0.5237
 5564WAT     H222963   1.947   2.580   6.894  0.7004 -1.2341 -1.6703
 5564WAT    EPW22964   1.966   2.651   6.869 -0.4039  0.2255 -0.0923
 5565WAT      O22965   7.629   3.222   5.964 -0.0268 -0.4474  0.2248
 5565WAT     H122966   7.555   3.266   5.977  0.2880 -0.2921  1.6685
 5565WAT     H222967   7.620   3.150   6.011  0.6310 -0.5397  0.2283
 5565WAT    EPW22968   7.617   3.218   5.973 -0.1393  0.1939 -0.3183
 5566WAT      O22969   2.497   4.743   2.725 -0.5841  0.3708  0.0357
 5566WAT     H122970   2.535   4.820   2.707  0.7533 -0.6379 -1.8046
 5566WAT     H222971   2.421   4.766   2.760 -1.0376  2.5979 -2.1114
 5566WAT    EPW22972   2.492   4.758   2.727  0.5142 -0.4745  0.5397
 5567WAT      O22973   6.131   3.417   6.748 -0.4418 -0.5038  0.0555
 5567WAT     H122974   6.109   3.337   6.773 -0.1817 -0.6618 -0.2078
 5567WAT     H222975   6.130   3.464   6.822 -3.4958 -0.0454 -0.1707
 5567WAT    EPW22976   6.128   3.412   6.762  0.2237  0.2259  0.0104
 5568WAT      O22977   2.412   1.492   7.015 -0.7897 -0.2204 -0.4567
 5568WAT     H122978   2.359   1.518   7.080 -1.3919 -1.8307 -0.2527
 5568WAT     H222979   2.481   1.458   7.058 -1.6307 -2.1911 -0.5926
 5568WAT    EPW22980   2.415   1.491   7.031 -0.5591 -0.0207  0.4099
 5569WAT      O22981   5.689   6.705   1.634  0.0737 -0.2568  0.1806
 5569WAT     H122982   5.652   6.704   1.555 -1.8809 -1.1216  1.0359
 5569WAT     H222983   5.729   6.783   1.637 -1.2484  0.5246 -1.0528
 5569WAT    EPW22984   5.689   6.716   1.623  0.4474 -0.2715 -0.0364
 5570WAT      O22985   7.197   1.583   0.129 -0.2194 -0.4809  0.1724
 5570WAT     H122986   7.250   1.547   0.070 -0.1539 -0.4553  0.2154
 5570WAT     H222987   7.250   1.601   0.196  0.0833  1.2007 -0.4656
 5570WAT    EPW22988   7.212   1.580   0.131  0.0863  0.0227 -0.4779
 5571WAT      O22989   3.767   3.579   7.283  0.4410 -0.5749 -0.4315
 5571WAT     H122990   3.814   3.513   7.252  1.8993  0.7273 -1.1327
 5571WAT     H222991   3.755   3.631   7.214  1.9119  1.3226  0.6248
 5571WAT    EPW22992   3.772   3.577   7.268 -0.1260  0.5160  0.2275
 5572WAT      O22993   5.570   6.358   4.484 -0.3228  0.7894  0.2400
 5572WAT     H122994   5.508   6.420   4.478 -0.0918  1.1519  1.3233
 5572WAT     H222995   5.637   6.400   4.520 -0.4112 -0.2380  1.6849
 5572WAT    EPW22996   5.570   6.374   4.489 -0.1635  0.3240  0.0467
 5573WAT      O22997   1.288   2.554   5.813 -0.2122 -0.7572 -0.6665
 5573WAT     H122998   1.271   2.547   5.728 -2.0760 -1.7708 -0.2796
 5573WAT     H222999   1.348   2.617   5.818 -3.1053  2.4653 -2.4134
 5573WAT    EPW23000   1.294   2.562   5.801  0.8224  0.5117  0.5306
 5574WAT      O23001   3.289   2.773   0.927 -0.0738  0.0260  0.6450
 5574WAT     H123002   3.370   2.794   0.903  0.2278 -0.7634  0.9764
 5574WAT     H223003   3.255   2.738   0.855  0.1083 -0.3054  0.7233
 5574WAT    EPW23004   3.296   2.771   0.913 -0.6508  0.0308 -0.5491
 5575WAT      O23005   1.320   7.413   0.595  0.2871  0.4586  0.2207
 5575WAT     H123006   1.364   7.389   0.667  1.4915  0.6816 -0.4302
 5575WAT     H223007   1.376   7.463   0.552 -0.2523 -0.0488 -1.1151
 5575WAT    EPW23008   1.335   7.417   0.599  0.0720  0.0424  0.0109
 5576WAT      O23009   3.177   5.827   5.838 -0.1799  0.0476  0.0143
 5576WAT     H123010   3.234   5.763   5.855  1.0806  1.6133  2.4398
 5576WAT     H223011   3.224   5.884   5.792 -0.2852  0.6230  0.6116
 5576WAT    EPW23012   3.192   5.826   5.834  0.4405  0.2345 -0.0223
 5577WAT      O23013   7.119   6.168   3.284  0.5432 -0.2391  0.2069
 5577WAT     H123014   7.194   6.126   3.297  0.7282 -0.7550 -2.0617
 5577WAT     H223015   7.142   6.252   3.290  1.0970 -0.4130  0.5480
 5577WAT    EPW23016   7.134   6.175   3.287 -0.0112  0.2867 -0.2804
 5578WAT      O23017   6.206   5.210   6.215 -0.0055 -0.0143 -0.0307
 5578WAT     H123018   6.269   5.156   6.188  1.7252  0.8839  1.8890
 5578WAT     H223019   6.224   5.285   6.175  0.7132  0.4731  1.1448
 5578WAT    EPW23020   6.218   5.214   6.205 -0.6522  0.1725  0.1823
 5579WAT      O23021   3.021   5.750   5.178  0.2970  0.4445 -0.5083
 5579WAT     H123022   3.083   5.733   5.238 -1.8889 -0.3908  1.6909
 5579WAT     H223023   3.036   5.833   5.157  0.7258  1.0228  1.8250
 5579WAT    EPW23024   3.033   5.760   5.184 -0.0636  0.1487 -0.2242
 5580WAT      O23025   2.656   6.423   6.771 -0.0061 -0.2176  0.2672
 5580WAT     H123026   2.722   6.419   6.828  1.2278 -0.4438 -1.1060
 5580WAT     H223027   2.632   6.506   6.773 -0.3621 -0.3332  1.5103
 5580WAT    EPW23028   2.662   6.434   6.780  0.5064  0.2942  0.2612
 5581WAT      O23029   1.483   3.378   2.819 -0.0425  0.0176 -0.0785
 5581WAT     H123030   1.537   3.342   2.761  0.5911  1.5824 -0.5077
 5581WAT     H223031   1.532   3.437   2.859 -0.7981 -0.2126  1.2515
 5581WAT    EPW23032   1.498   3.382   2.816  0.4463  0.2217  0.4697
 5582WAT      O23033   1.525   2.306   4.704  0.3794 -0.5774 -0.4206
 5582WAT     H123034   1.593   2.260   4.675 -0.2535 -1.2903 -0.8212
 5582WAT     H223035   1.520   2.373   4.649  1.0845 -0.2193 -0.0579
 5582WAT    EPW23036   1.534   2.309   4.692 -0.3847 -0.4230  0.2614
 5583WAT      O23037   7.478   5.912   4.406 -0.2425 -0.2148 -0.0555
 5583WAT     H123038   7.488   5.996   4.383  2.5805  0.1872  2.0760
 5583WAT     H223039   7.528   5.869   4.349 -1.3037 -0.4425 -0.8429
 5583WAT    EPW23040   7.487   5.918   4.394  0.1237  0.2591  0.3218
 5584WAT      O23041   2.908   1.839   3.894  0.1430  0.2259 -0.3196
 5584WAT     H123042   2.982   1.811   3.930  0.0351  0.6900  0.2819
 5584WAT     H223043   2.929   1.852   3.810  0.6327 -0.0223 -0.2355
 5584WAT    EPW23044   2.922   1.837   3.887  0.4139 -0.3638 -0.0059
 5585WAT      O23045   1.008   3.382   5.127  0.0964  0.0663  0.5588
 5585WAT     H123046   1.035   3.465   5.131 -0.2809  0.1513  1.6276
 5585WAT     H223047   1.062   3.345   5.069 -0.2058  1.2305 -0.5262
 5585WAT    EPW23048   1.020   3.389   5.119 -0.2429  0.2302  0.0346
 5586WAT      O23049   3.542   5.857   1.806 -0.1735 -0.1432 -0.3547
 5586WAT     H123050   3.562   5.874   1.890  1.7023 -0.7254 -0.6418
 5586WAT     H223051   3.493   5.785   1.811  0.0186 -0.2440  0.2359
 5586WAT    EPW23052   3.537   5.849   1.819 -0.1437 -0.2484 -0.6932
 5587WAT      O23053   7.553   3.367   1.169 -0.0119 -0.3574 -0.0562
 5587WAT     H123054   7.587   3.299   1.125 -0.9912 -0.3750 -0.8200
 5587WAT     H223055   7.485   3.332   1.211 -0.4402  0.1060 -0.3481
 5587WAT    EPW23056   7.548   3.351   1.168  0.1158 -0.5382  0.0780
 5588WAT      O23057   5.400   6.288   3.491  0.3613  0.1913 -0.3158
 5588WAT     H123058   5.348   6.357   3.502  0.4259  0.5164 -1.7694
 5588WAT     H223059   5.395   6.246   3.567 -1.2101  0.7626 -0.0524
 5588WAT    EPW23060   5.391   6.292   3.504 -0.0761  0.5806 -0.0906
 5589WAT      O23061   3.064   2.943   6.687  0.1368  0.1496 -0.4056
 5589WAT     H123062   3.134   2.893   6.704 -0.6763 -0.6005  0.9315
 5589WAT     H223063   3.014   2.891   6.638 -0.3018 -0.0432  0.2272
 5589WAT    EPW23064   3.067   2.928   6.682 -0.3377 -0.3573 -0.0675
 5590WAT      O23065   1.840   6.230   0.697  0.1498 -0.8004 -0.1633
 5590WAT     H123066   1.769   6.181   0.706  0.7706 -1.6317  0.3509
 5590WAT     H223067   1.849   6.238   0.610 -0.3066 -1.0714 -0.2365
 5590WAT    EPW23068   1.831   6.224   0.686  0.5833  0.0689  0.1583
 5591WAT      O23069   7.578   6.091   1.115 -0.4542  0.4173 -0.5075
 5591WAT     H123070   7.587   6.054   1.037 -0.0732 -0.0175 -0.2600
 5591WAT     H223071   7.560   6.024   1.168 -1.8820  0.8507 -0.4134
 5591WAT    EPW23072   7.577   6.076   1.111  0.0561  0.0582 -0.3543
 5592WAT      O23073   5.278   6.220   1.694  0.4150  1.1264 -0.8282
 5592WAT     H123074   5.329   6.200   1.762  1.9195  1.0539 -1.9156
 5592WAT     H223075   5.308   6.169   1.630 -1.3258  0.7914 -1.4364
 5592WAT    EPW23076   5.290   6.210   1.695  0.1700  0.0322  0.1760
 5593WAT      O23077   2.315   5.522   2.649 -0.3357  0.4658 -0.1537
 5593WAT     H123078   2.314   5.510   2.562  1.7677 -1.8943  0.0316
 5593WAT     H223079   2.372   5.587   2.661  0.0709  0.1753 -0.5044
 5593WAT    EPW23080   2.323   5.530   2.638 -0.1939 -0.3752  0.1145
 5594WAT      O23081   2.734   5.041   2.457  0.1540  0.1789 -0.1608
 5594WAT     H123082   2.702   5.054   2.377  0.1108  0.2800 -0.1267
 5594WAT     H223083   2.776   5.115   2.476  2.4783 -0.7815 -1.1559
 5594WAT    EPW23084   2.736   5.054   2.448  0.2980  0.1178 -0.2974
 5595WAT      O23085   7.412   3.423   1.870 -0.6144 -0.1832  0.0239
 5595WAT     H123086   7.417   3.414   1.783 -2.0107  0.2841 -0.1124
 5595WAT     H223087   7.446   3.348   1.899 -0.6917 -0.6082 -0.9330
 5595WAT    EPW23088   7.418   3.410   1.861 -1.0271 -0.1800  0.0117
 5596WAT      O23089   0.220   2.249   1.917  0.4527 -0.5088 -0.3119
 5596WAT     H123090   0.218   2.253   1.830 -1.2180 -0.8190 -0.3196
 5596WAT     H223091   0.183   2.324   1.941  3.7923  1.1321  0.2560
 5596WAT    EPW23092   0.214   2.261   1.907 -0.1012 -0.3361  0.6148
 5597WAT      O23093   6.476   6.242   5.022  0.1697 -0.2136  0.0446
 5597WAT     H123094   6.481   6.316   5.068  0.8529  0.4569 -1.0744
 5597WAT     H223095   6.549   6.242   4.974 -0.9395 -0.4121 -1.7254
 5597WAT    EPW23096   6.488   6.253   5.022 -1.1106  0.1223 -0.2881
 5598WAT      O23097   2.180   2.814   5.596 -0.5713 -0.5483 -0.1817
 5598WAT     H123098   2.254   2.782   5.560  0.6140  2.0069 -0.2226
 5598WAT     H223099   2.149   2.867   5.534 -0.8180  0.6684  0.9564
 5598WAT    EPW23100   2.187   2.817   5.581 -0.0599  0.1458  0.8607
 5599WAT      O23101   3.174   3.711   7.199  0.0240  0.1078 -0.3883
 5599WAT     H123102   3.131   3.782   7.172 -1.2030 -0.4060  0.1351
 5599WAT     H223103   3.125   3.681   7.265  1.2272 -0.4852  0.2707
 5599WAT    EPW23104   3.160   3.717   7.205 -0.0625 -0.0064 -0.0173
 5600WAT      O23105   5.142   0.127   2.763 -0.1691  0.4421  0.3955
 5600WAT     H123106   5.201   0.172   2.807 -1.1724  0.5532  1.6981
 5600WAT     H223107   5.187   0.091   2.698  1.5038 -0.1824  1.8242
 5600WAT    EPW23108   5.157   0.128   2.760 -0.2399 -0.2630 -0.3171
 5601WAT      O23109   6.945   1.932   6.282 -0.6887  0.6648  0.2022
 5601WAT     H123110   7.015   1.966   6.323 -0.3140 -1.4234  1.4685
 5601WAT     H223111   6.881   1.987   6.302  0.3460  2.0640 -0.1010
 5601WAT    EPW23112   6.946   1.945   6.291  0.4086  0.0099  0.2945
 5602WAT      O23113   3.690   4.222   5.658 -0.6096  1.6168 -0.3259
 5602WAT     H123114   3.652   4.270   5.597 -1.7964 -0.0021 -0.9429
 5602WAT     H223115   3.633   4.225   5.725 -0.0102  2.1970  0.1751
 5602WAT    EPW23116   3.676   4.229   5.659  0.2170 -0.4643 -0.4157
 5603WAT      O23117   1.152   2.874   6.356  0.1937 -0.0956  0.0091
 5603WAT     H123118   1.121   2.946   6.318 -0.1714 -0.5783 -0.6128
 5603WAT     H223119   1.080   2.836   6.389  0.4514  0.1000  0.8221
 5603WAT    EPW23120   1.137   2.879   6.356  0.5464  0.7785 -0.5088
 5604WAT      O23121   2.598   4.840   3.546 -0.2355  0.0980 -0.0623
 5604WAT     H123122   2.669   4.791   3.531 -0.0481  0.0848  0.7993
 5604WAT     H223123   2.537   4.804   3.496 -0.0587 -0.9419  0.4498
 5604WAT    EPW23124   2.600   4.828   3.537 -0.5515 -0.0945  0.6383
 5605WAT      O23125   0.098   3.965   6.245 -0.5703  0.6299  0.3124
 5605WAT     H123126   0.124   3.884   6.228  0.7158  1.5129 -2.5706
 5605WAT     H223127   0.014   3.965   6.222 -0.2235  0.4168 -1.0357
 5605WAT    EPW23128   0.090   3.953   6.239  0.7149 -1.1013  0.0051
 5606WAT      O23129   3.801   7.002   5.621 -0.3597 -0.2698 -0.2165
 5606WAT     H123130   3.809   6.916   5.634  0.2401 -0.0685  0.8633
 5606WAT     H223131   3.826   7.012   5.538 -2.4354 -1.3727 -1.0510
 5606WAT    EPW23132   3.806   6.991   5.611 -0.2221  0.3532 -0.3474
 5607WAT      O23133   4.564   0.202   1.644 -0.0868 -0.0777 -0.2724
 5607WAT     H123134   4.590   0.152   1.578  0.9622  0.1708 -0.0531
 5607WAT     H223135   4.617   0.180   1.709  0.4582  1.3854 -0.1961
 5607WAT    EPW23136   4.575   0.191   1.644  0.4670 -0.3632 -0.2021
 5608WAT      O23137   3.997   3.521   0.227  0.0740 -0.5386 -0.0945
 5608WAT     H123138   4.060   3.481   0.182  0.8126  0.3435  0.1071
 5608WAT     H223139   4.035   3.541   0.303 -0.2012  0.6346 -0.2351
 5608WAT    EPW23140   4.012   3.518   0.231  0.0898  0.6294  0.0395
 5609WAT      O23141   0.315   0.916   5.977  0.6439 -0.1657 -0.1284
 5609WAT     H123142   0.391   0.954   5.959  1.0572 -1.3071 -0.8010
 5609WAT     H223143   0.292   0.953   6.053  1.9939 -0.0069  0.2264
 5609WAT    EPW23144   0.323   0.927   5.986 -0.4087  0.2625  0.0560
 5610WAT      O23145   1.593   4.966   2.080  0.6277  0.4056  0.4153
 5610WAT     H123146   1.573   4.903   2.022 -2.4714  0.7066  0.9995
 5610WAT     H223147   1.654   4.929   2.130 -0.5410 -1.9315  0.2717
 5610WAT    EPW23148   1.599   4.951   2.079 -0.0940 -0.3772  0.4603
 5611WAT      O23149   4.184   1.662   1.478 -0.0155  0.0866  0.0526
 5611WAT     H123150   4.158   1.744   1.459 -0.2584 -0.7870 -4.6116
 5611WAT     H223151   4.110   1.616   1.472  0.5480 -0.8044 -0.1387
 5611WAT    EPW23152   4.169   1.667   1.474 -0.6410 -0.8926 -0.6560
 5612WAT      O23153   3.109   6.467   5.052  0.0983  0.3281 -0.4602
 5612WAT     H123154   3.040   6.439   5.007 -0.1175  0.4256 -0.1954
 5612WAT     H223155   3.128   6.544   5.016  0.4056  0.0576 -0.8871
 5612WAT    EPW23156   3.101   6.474   5.040  0.5390 -0.9586 -0.3574
 5613WAT      O23157   3.474   4.541   0.822  0.1546  0.5129  0.0820
 5613WAT     H123158   3.517   4.576   0.889  0.8206 -1.5285  0.8105
 5613WAT     H223159   3.407   4.596   0.809  0.9874  1.8697  1.2646
 5613WAT    EPW23160   3.470   4.554   0.830 -0.2062  0.2282  0.0348
 5614WAT      O23161   0.320   6.772   4.310  0.3312  0.0592 -0.5437
 5614WAT     H123162   0.392   6.765   4.358 -0.1113 -1.2877 -0.0585
 5614WAT     H223163   0.325   6.705   4.255  0.3929  1.0755 -1.8321
 5614WAT    EPW23164   0.332   6.761   4.309 -0.3735 -0.2178  0.2292
 5615WAT      O23165   4.573   3.838   5.267  0.1800  0.1069  0.3666
 5615WAT     H123166   4.529   3.854   5.340  1.3493  1.0708  0.8938
 5615WAT     H223167   4.510   3.835   5.206 -0.9780 -2.1318  1.5437
 5615WAT    EPW23168   4.557   3.840   5.269  0.4690  0.6089  0.8493
 5616WAT      O23169   2.162   7.309   4.549  1.0367  0.0473  0.2054
 5616WAT     H123170   2.199   7.324   4.626 -0.0791  1.8033  0.4484
 5616WAT     H223171   2.225   7.268   4.504  2.5223  1.0162  1.2976
 5616WAT    EPW23172   2.177   7.305   4.554 -0.4091 -0.3393 -0.0125
 5617WAT      O23173   7.112   4.544   5.245 -0.0522 -0.2793  0.0866
 5617WAT     H123174   7.133   4.602   5.183 -0.8591 -0.6328 -0.5411
 5617WAT     H223175   7.026   4.555   5.255  0.1266  0.0473  1.4467
 5617WAT    EPW23176   7.102   4.554   5.237 -0.2630  0.1665 -0.2516
 5618WAT      O23177   4.540   5.848   2.810 -0.5124  0.1361 -0.0096
 5618WAT     H123178   4.501   5.793   2.755  0.0254  0.2801 -0.5348
 5618WAT     H223179   4.590   5.897   2.759  0.2119  0.0912  0.6349
 5618WAT    EPW23180   4.541   5.847   2.794 -0.1739 -0.1825  0.0531
 5619WAT      O23181   2.838   0.998   6.326  0.7324  0.4499 -0.6983
 5619WAT     H123182   2.909   0.949   6.339  0.7029  0.6699  0.3475
 5619WAT     H223183   2.777   0.960   6.376  0.6746  1.4608  0.0344
 5619WAT    EPW23184   2.840   0.985   6.335 -0.0968 -0.1836  0.0629
 5620WAT      O23185   1.223   3.670   5.869  0.1603 -0.3505 -0.6203
 5620WAT     H123186   1.159   3.699   5.920  1.3323 -0.3732  0.9242
 5620WAT     H223187   1.237   3.735   5.814  1.0442  1.0714  1.1808
 5620WAT    EPW23188   1.215   3.684   5.868 -0.4555 -0.2924 -0.3334
 5621WAT      O23189   5.058   1.422   2.537  0.3240  0.1871  0.0806
 5621WAT     H123190   5.017   1.488   2.577 -0.4010 -0.1112 -0.1507
 5621WAT     H223191   5.040   1.435   2.452 -0.8364 -0.9347  0.1108
 5621WAT    EPW23192   5.049   1.434   2.530  0.0658  0.4203  0.1396
 5622WAT      O23193   6.091   3.561   7.224 -0.6046 -0.0169 -0.2242
 5622WAT     H123194   6.103   3.614   7.293  0.5165 -0.6359  0.0870
 5622WAT     H223195   6.141   3.492   7.243 -0.2558 -0.1824 -1.6770
 5622WAT    EPW23196   6.100   3.559   7.237  0.6647 -0.1234  0.0284
 5623WAT      O23197   0.490   5.012   6.164 -0.2543  0.0237 -0.6102
 5623WAT     H123198   0.460   5.094   6.156  1.4442  0.6681 -0.8079
 5623WAT     H223199   0.440   4.966   6.110 -1.2462  0.9280 -0.4915
 5623WAT    EPW23200   0.479   5.017   6.155  0.3095 -0.6263 -0.6180
 5624WAT      O23201   3.504   6.243   6.361  0.7058  0.1466  0.1595
 5624WAT     H123202   3.429   6.278   6.388  0.2825 -0.2831 -0.3996
 5624WAT     H223203   3.559   6.257   6.426  0.0310  0.1452  0.7436
 5624WAT    EPW23204   3.501   6.250   6.374 -0.4385  0.3496 -0.0250
 5625WAT      O23205   4.246   2.908   6.380 -0.3436 -0.6998  0.1062
 5625WAT     H123206   4.299   2.843   6.354 -0.6323 -1.0830  0.4690
 5625WAT     H223207   4.297   2.954   6.434  0.5432  0.5890 -1.7008
 5625WAT    EPW23208   4.262   2.905   6.384 -0.2828  0.4654 -0.5641
 5626WAT      O23209   6.160   3.382   7.563  0.7170  0.1825 -0.0940
 5626WAT     H123210   6.126   3.351   7.637  1.9090  0.9886  0.8160
 5626WAT     H223211   6.099   3.362   7.504  0.0037 -1.0084  0.9804
 5626WAT    EPW23212   6.146   3.374   7.565  0.3633 -0.2539  0.7302
 5627WAT      O23213   2.136   4.173   4.004 -0.6452  0.5474  0.3976
 5627WAT     H123214   2.062   4.129   3.989 -0.0838 -0.1925 -0.3478
 5627WAT     H223215   2.137   4.183   4.090 -2.5612  2.3300  0.2963
 5627WAT    EPW23216   2.125   4.168   4.014  0.2751  0.4182  0.3981
 5628WAT      O23217   3.570   3.883   6.674 -0.3461  0.3295  0.1392
 5628WAT     H123218   3.634   3.883   6.733 -0.6073 -1.0130  0.4571
 5628WAT     H223219   3.498   3.868   6.722 -0.7741  0.8038 -0.3353
 5628WAT    EPW23220   3.569   3.881   6.690 -0.6094 -0.2427 -0.2152
 5629WAT      O23221   7.549   0.398   0.532  0.5182 -0.0306 -0.1282
 5629WAT     H123222   7.499   0.384   0.462  0.4018 -0.9722  0.1261
 5629WAT     H223223   7.570   0.317   0.558  0.4033  0.2940  1.0339
 5629WAT    EPW23224   7.545   0.384   0.526  0.4050  0.3717  0.0181
 5630WAT      O23225   3.064   5.272   6.525  0.4646 -0.0431 -0.3578
 5630WAT     H123226   3.084   5.232   6.599 -1.7823 -2.4896 -0.9294
 5630WAT     H223227   3.121   5.239   6.467  0.5771 -0.0726 -0.2300
 5630WAT    EPW23228   3.075   5.261   6.527  0.7289 -0.3083 -0.2441
 5631WAT      O23229   1.005   1.719   4.465  0.1865  0.6379  0.4370
 5631WAT     H123230   1.069   1.661   4.471  0.1251  0.2065 -1.9792
 5631WAT     H223231   0.933   1.670   4.458  0.0093  1.0181 -0.5133
 5631WAT    EPW23232   1.004   1.703   4.465  0.0870 -0.4262  0.0647
 5632WAT      O23233   4.859   4.858   3.899 -0.1694 -0.0890  0.0696
 5632WAT     H123234   4.794   4.838   3.954 -0.0673 -0.1551  0.1646
 5632WAT     H223235   4.818   4.901   3.835 -0.1347  0.8967  0.6937
 5632WAT    EPW23236   4.843   4.861   3.898 -0.4352  1.2015 -0.0433
 5633WAT      O23237   1.289   0.594   1.826 -0.5794 -0.4095  0.0376
 5633WAT     H123238   1.290   0.511   1.850  2.4070 -0.4317  0.2342
 5633WAT     H223239   1.366   0.625   1.855 -0.8860  1.9879 -1.4140
 5633WAT    EPW23240   1.300   0.587   1.834 -0.1520 -0.3138  0.7882
 5634WAT      O23241   7.083   6.060   6.427  0.1429 -0.3419  0.0697
 5634WAT     H123242   7.096   6.139   6.393 -0.3443 -0.1049  0.4096
 5634WAT     H223243   7.025   6.024   6.372  1.8216 -1.2315 -1.2005
 5634WAT    EPW23244   7.076   6.066   6.414  0.0144 -0.0104 -0.1995
 5635WAT      O23245   0.809   0.577   2.615 -0.0579 -0.2134 -0.1735
 5635WAT     H123246   0.812   0.607   2.697 -3.7010 -4.7514  2.0662
 5635WAT     H223247   0.773   0.644   2.571 -0.5829  1.4620  2.5406
 5635WAT    EPW23248   0.804   0.592   2.620 -0.1480 -1.1351  0.1936
 5636WAT      O23249   5.966   5.885   2.244 -0.2536  0.5225 -0.0667
 5636WAT     H123250   6.008   5.818   2.206 -0.0279 -1.2975  2.9926
 5636WAT     H223251   6.023   5.950   2.239  0.8546 -0.4355 -0.4060
 5636WAT    EPW23252   5.981   5.884   2.238  0.1787 -0.0244  0.4834
 5637WAT      O23253   2.030   4.037   6.623 -0.0765  0.1224  0.1199
 5637WAT     H123254   1.962   4.091   6.628 -1.2525 -1.1548 -0.9513
 5637WAT     H223255   2.085   4.078   6.568 -1.2284  0.0045 -1.1889
 5637WAT    EPW23256   2.028   4.051   6.615 -0.1532  0.2512 -0.1739
 5638WAT      O23257   4.313   5.676   4.547  0.3954 -0.2012 -0.2274
 5638WAT     H123258   4.378   5.694   4.492 -0.0643 -0.1629 -0.7686
 5638WAT     H223259   4.316   5.742   4.605  2.0806 -1.2357  0.9412
 5638WAT    EPW23260   4.323   5.689   4.548 -0.4924 -0.0097 -0.2194
 5639WAT      O23261   5.113   0.254   3.995  0.1692  0.0892  0.1598
 5639WAT     H123262   5.077   0.219   3.924  0.6244 -1.2572  0.5493
 5639WAT     H223263   5.127   0.337   3.973 -1.8466  0.3100 -0.4860
 5639WAT    EPW23264   5.109   0.261   3.981  0.2152 -0.0526 -0.6500
 5640WAT      O23265   4.580   4.046   4.217  0.1551  0.4634 -0.0005
 5640WAT     H123266   4.590   4.078   4.297 -1.7086  2.8029 -0.6073
 5640WAT     H223267   4.513   3.990   4.226  0.2652  0.3549  0.1537
 5640WAT    EPW23268   4.571   4.042   4.230  0.8741 -0.1923  0.2906
 5641WAT      O23269   3.738   4.172   6.851  0.4435  0.4899  0.5484
 5641WAT     H123270   3.808   4.216   6.878  0.4581  0.4282  0.6135
 5641WAT     H223271   3.758   4.089   6.869  1.5819  0.0878 -2.0493
 5641WAT    EPW23272   3.751   4.166   6.858 -0.4741 -0.0234  0.0118
 5642WAT      O23273   7.058   4.296   5.536 -0.2792  0.4310 -0.3141
 5642WAT     H123274   7.113   4.230   5.552  0.5010  0.8077 -1.3093
 5642WAT     H223275   7.029   4.280   5.456  0.9253  1.9302 -1.1173
 5642WAT    EPW23276   7.062   4.284   5.527 -0.2051  0.5342  0.0594
 5643WAT      O23277   0.815   5.474   7.303 -0.6446 -0.1930 -0.3968
 5643WAT     H123278   0.801   5.507   7.383 -0.6128  0.5537 -0.6850
 5643WAT     H223279   0.753   5.414   7.295 -0.7317 -0.1842  0.1428
 5643WAT    EPW23280   0.804   5.470   7.314 -0.2538  0.0910 -0.5769
 5644WAT      O23281   3.480   5.753   2.958  0.0621 -0.1020 -0.2773
 5644WAT     H123282   3.489   5.836   2.986  0.9085  0.1036 -1.1338
 5644WAT     H223283   3.550   5.713   2.991 -0.3767 -0.5013  0.1804
 5644WAT    EPW23284   3.492   5.759   2.967 -0.5802 -0.2176  0.2640
 5645WAT      O23285   5.519   0.489   2.791  0.3692  0.2184 -0.4765
 5645WAT     H123286   5.499   0.562   2.835  0.9605  0.4158 -0.5288
 5645WAT     H223287   5.480   0.499   2.714 -1.9891 -0.8040  0.4890
 5645WAT    EPW23288   5.511   0.501   2.786 -0.1686  0.0526  0.6909
 5646WAT      O23289   5.610   2.661   6.360  0.0073  0.1540  0.3380
 5646WAT     H123290   5.642   2.669   6.440  0.4507  0.4053  0.1372
 5646WAT     H223291   5.532   2.700   6.365  0.1255  0.3602  0.5925
 5646WAT    EPW23292   5.603   2.668   6.373 -0.4923  0.6705  0.2119
 5647WAT      O23293   7.556   0.921   4.896 -0.3683  0.3585 -0.3574
 5647WAT     H123294   7.493   0.921   4.836 -0.6227  0.4860 -0.0938
 5647WAT     H223295   7.625   0.888   4.854 -1.3631 -2.6888  0.1421
 5647WAT    EPW23296   7.557   0.916   4.881  0.0482 -0.4715 -0.2149
 5648WAT      O23297   3.047   0.174   0.842 -0.0193  0.4379  0.1158
 5648WAT     H123298   3.058   0.103   0.793 -0.7176 -0.4820  1.2159
 5648WAT     H223299   2.970   0.206   0.815  0.3804  0.8938 -0.5029
 5648WAT    EPW23300   3.037   0.168   0.831  0.2848 -0.0511 -0.3075
 5649WAT      O23301   2.175   2.603   7.109  0.2940 -1.1228  0.0228
 5649WAT     H123302   2.135   2.578   7.182 -0.2673 -1.3041 -0.3362
 5649WAT     H223303   2.108   2.624   7.056  0.6855  1.5750  0.4407
 5649WAT    EPW23304   2.159   2.602   7.112  0.3719 -0.3397  0.2190
 5650WAT      O23305   4.507   2.611   0.291 -0.7281  0.3102 -0.2421
 5650WAT     H123306   4.449   2.597   0.227 -3.3766 -1.0309  2.2752
 5650WAT     H223307   4.557   2.540   0.290 -1.4801 -0.2271 -0.1179
 5650WAT    EPW23308   4.506   2.599   0.281  0.4839  0.3206  0.2909
 5651WAT      O23309   1.368   4.784   7.235 -0.6515 -0.4419  0.3740
 5651WAT     H123310   1.441   4.828   7.214  0.7244 -1.7927  2.0574
 5651WAT     H223311   1.337   4.829   7.302 -0.4517 -0.7743  0.6936
 5651WAT    EPW23312   1.375   4.797   7.241 -0.4620  0.6328  0.3631
 5652WAT      O23313   2.044   6.213   4.178 -0.1730  0.4345 -0.0632
 5652WAT     H123314   1.974   6.184   4.135  0.0160  0.8134 -0.6241
 5652WAT     H223315   2.067   6.144   4.227 -0.7259  0.1915 -0.1365
 5652WAT    EPW23316   2.037   6.198   4.179 -0.1462  0.0266 -0.0876
 5653WAT      O23317   5.130   4.033   3.330  0.0296  0.0421 -0.0229
 5653WAT     H123318   5.190   4.095   3.347 -0.0901  0.7015 -1.7754
 5653WAT     H223319   5.176   3.959   3.336  0.7772  0.4668 -0.2887
 5653WAT    EPW23320   5.146   4.031   3.333  0.0394 -0.0155  0.7319
 5654WAT      O23321   5.836   3.685   7.413  0.0703  0.2692  0.1981
 5654WAT     H123322   5.780   3.753   7.417  0.7621  0.9978 -1.6541
 5654WAT     H223323   5.798   3.631   7.355  0.6550  0.1632 -0.0862
 5654WAT    EPW23324   5.822   3.687   7.405  0.1997  0.0216  0.0153
 5655WAT      O23325   3.688   0.354   1.267 -0.3158  0.5495  0.5809
 5655WAT     H123326   3.605   0.369   1.291 -0.2178  0.8952  0.6967
 5655WAT     H223327   3.706   0.420   1.213 -0.2026  0.3258  0.3422
 5655WAT    EPW23328   3.678   0.366   1.263  0.8301  0.0211  0.3794
 5656WAT      O23329   7.571   3.226   1.980 -0.0080  0.1478 -0.3608
 5656WAT     H123330   7.552   3.180   1.908  0.2874 -1.8605  0.7662
 5656WAT     H223331   7.525   3.186   2.042  2.4043 -0.4409  1.1835
 5656WAT    EPW23332   7.561   3.214   1.979 -0.2527 -0.4162 -0.0389
 5657WAT      O23333   4.030   6.251   4.506 -0.1984 -0.3301  0.5430
 5657WAT     H123334   4.054   6.333   4.526 -0.5948 -0.1010  0.0996
 5657WAT     H223335   3.956   6.262   4.461  1.6716 -0.6155 -2.9764
 5657WAT    EPW23336   4.023   6.265   4.502  0.9469 -0.3258 -0.3719
 5658WAT      O23337   1.297   0.570   4.968 -0.3615 -0.5675 -0.1279
 5658WAT     H123338   1.374   0.562   5.009 -0.9989  2.5130  2.0794
 5658WAT     H223339   1.315   0.621   4.900 -0.5310  1.0770  1.0060
 5658WAT    EPW23340   1.311   0.576   4.964  0.3321  0.8150  0.0288
 5659WAT      O23341   2.765   4.849   6.435  0.0146 -0.0379 -0.3565
 5659WAT     H123342   2.791   4.919   6.391 -0.8681 -0.1271 -1.0261
 5659WAT     H223343   2.822   4.787   6.411 -0.3163 -0.0250 -1.2088
 5659WAT    EPW23344   2.777   4.850   6.425 -0.0008 -0.3790 -1.0018
 5660WAT      O23345   2.519   2.958   0.857  0.1340 -0.1442  0.5196
 5660WAT     H123346   2.442   2.939   0.894 -0.1081 -0.2881 -0.0438
 5660WAT     H223347   2.498   2.970   0.773  0.5051  1.2215  0.6011
 5660WAT    EPW23348   2.504   2.957   0.850  0.2554 -0.2925  0.2153
 5661WAT      O23349   0.526   0.153   6.212  0.1811 -0.6810  0.1806
 5661WAT     H123350   0.440   0.142   6.208 -0.0699  1.2687 -0.6189
 5661WAT     H223351   0.558   0.083   6.170 -0.9765 -1.3709  0.4020
 5661WAT    EPW23352   0.518   0.141   6.205  0.5178 -0.2577  0.2542
 5662WAT      O23353   2.720   6.270   3.128 -0.1391 -0.0131  0.3595
 5662WAT     H123354   2.711   6.328   3.064 -2.8164 -0.3077  0.3586
 5662WAT     H223355   2.661   6.295   3.187  0.2783 -1.3881  1.4075
 5662WAT    EPW23356   2.710   6.282   3.127 -0.0300  0.1856 -0.6314
 5663WAT      O23357   5.622   0.744   3.181  0.1782 -0.1232  0.3517
 5663WAT     H123358   5.541   0.775   3.172  0.2173  0.2518  1.1957
 5663WAT     H223359   5.609   0.659   3.198 -0.1976  0.3513  2.8538
 5663WAT    EPW23360   5.608   0.736   3.182 -0.1161 -0.0574 -0.4170
 5664WAT      O23361   4.547   1.118   5.977 -0.2845 -0.7891  0.2811
 5664WAT     H123362   4.608   1.078   5.930 -1.7717 -1.3324 -1.2765
 5664WAT     H223363   4.492   1.054   5.999  0.6782 -0.6973  3.4368
 5664WAT    EPW23364   4.548   1.103   5.974 -0.7447 -1.4669 -0.1684
 5665WAT      O23365   0.921   0.243   4.219 -0.2124 -0.3563  0.2825
 5665WAT     H123366   0.838   0.227   4.240 -0.5980 -0.0965 -0.9584
 5665WAT     H223367   0.919   0.254   4.133  1.0045  0.3745  0.3194
 5665WAT    EPW23368   0.909   0.242   4.209  0.2746 -0.0687 -0.2039
 5666WAT      O23369   6.356   2.143   5.923  0.4755 -0.4617  0.3158
 5666WAT     H123370   6.323   2.073   5.963  2.4977 -3.0134 -2.1015
 5666WAT     H223371   6.400   2.110   5.856  0.0587  3.2997 -2.1239
 5666WAT    EPW23372   6.358   2.128   5.919 -0.1010 -0.6177  0.4602
 5667WAT      O23373   4.313   5.983   5.737 -0.3192  0.3306  0.1589
 5667WAT     H123374   4.386   6.000   5.692  0.0131  0.1754  0.6404
 5667WAT     H223375   4.258   5.953   5.676  0.7135 -1.6285  0.1415
 5667WAT    EPW23376   4.315   5.981   5.721 -0.7845 -0.4027 -0.5194
 5668WAT      O23377   2.441   2.870   1.665 -0.3298  0.3644 -0.4120
 5668WAT     H123378   2.455   2.789   1.636 -0.9731  0.4318 -0.9444
 5668WAT     H223379   2.491   2.919   1.613  1.3382  0.1924  0.9647
 5668WAT    EPW23380   2.450   2.866   1.653 -0.1609  0.1588  0.0881
 5669WAT      O23381   2.840   1.816   3.624 -0.3317  0.1370 -0.2087
 5669WAT     H123382   2.785   1.769   3.576 -0.5761  0.6537 -0.4386
 5669WAT     H223383   2.862   1.883   3.573 -1.5859  1.3962  0.8095
 5669WAT    EPW23384   2.836   1.819   3.610  0.3606  0.0742  0.1322
 5670WAT      O23385   0.337   2.113   7.199 -0.5319  0.9551  0.3038
 5670WAT     H123386   0.419   2.117   7.172 -1.2272  0.7410 -2.0770
 5670WAT     H223387   0.321   2.192   7.232  0.8786  0.6717  1.7710
 5670WAT    EPW23388   0.347   2.125   7.200  0.4489 -0.7571 -0.1375
 5671WAT      O23389   2.944   7.485   1.465 -0.2317 -0.2031 -0.4322
 5671WAT     H123390   2.891   7.552   1.447 -1.1087 -1.1970 -1.6219
 5671WAT     H223391   2.914   7.455   1.541 -0.8788 -0.2586 -0.7041
 5671WAT    EPW23392   2.932   7.491   1.474  0.6250 -0.3072  0.0013
 5672WAT      O23393   5.249   0.180   7.091  0.0062  0.6434 -0.2887
 5672WAT     H123394   5.224   0.211   7.014  2.3852 -0.9218 -1.8187
 5672WAT     H223395   5.272   0.252   7.136  0.5349  1.4602 -1.8063
 5672WAT    EPW23396   5.249   0.195   7.086  0.3576  0.7956 -0.3209
 5673WAT      O23397   1.272   2.849   3.844 -0.2551 -0.0836 -0.2928
 5673WAT     H123398   1.325   2.808   3.900  0.9547  2.3189  0.4339
 5673WAT     H223399   1.230   2.783   3.804  0.7709 -1.9651  1.5293
 5673WAT    EPW23400   1.273   2.833   3.846  0.5743 -0.2841 -0.2377
 5674WAT      O23401   7.651   1.187   6.882 -0.0682 -0.1213 -0.0853
 5674WAT     H123402   7.576   1.231   6.888 -0.5792 -1.0124  0.1468
 5674WAT     H223403   7.672   1.170   6.965 -0.5033 -1.3503 -0.2159
 5674WAT    EPW23404   7.643   1.191   6.895 -0.2024 -0.2126 -0.1269
 5675WAT      O23405   2.406   6.432   7.544 -0.4547  0.2360  0.1689
 5675WAT     H123406   2.342   6.466   7.495 -0.8312  0.8533  1.0653
 5675WAT     H223407   2.364   6.378   7.598 -0.2584  0.8297  0.9245
 5675WAT    EPW23408   2.390   6.429   7.545 -0.2457 -0.1170  0.6342
 5676WAT      O23409   2.801   4.079   7.104 -0.5758  0.3503  0.1279
 5676WAT     H123410   2.759   4.045   7.172 -0.8062 -0.0291 -0.2029
 5676WAT     H223411   2.747   4.064   7.037 -0.4338  0.8773 -0.1106
 5676WAT    EPW23412   2.786   4.072   7.104  0.3824  0.0858  0.1161
 5677WAT      O23413   4.839   0.638   0.680  0.3207 -0.0808 -0.1802
 5677WAT     H123414   4.819   0.665   0.761  1.3205 -1.4057  0.5503
 5677WAT     H223415   4.869   0.710   0.641  1.5545  0.2104  1.2274
 5677WAT    EPW23416   4.840   0.653   0.686 -0.0834 -0.2622 -0.3588
 5678WAT      O23417   4.466   0.313   5.669  0.4540 -0.2146  0.3911
 5678WAT     H123418   4.430   0.234   5.673  0.1103 -0.1542 -1.0908
 5678WAT     H223419   4.549   0.299   5.690  0.7512 -1.2350 -1.3229
 5678WAT    EPW23420   4.473   0.299   5.673 -0.1915  0.0097 -0.7342
 5679WAT      O23421   1.932   2.669   1.692  0.2549 -0.2355  0.5272
 5679WAT     H123422   1.913   2.601   1.744 -1.5366  0.3779  0.7330
 5679WAT     H223423   1.903   2.738   1.736 -1.8514  0.2733 -1.4758
 5679WAT    EPW23424   1.925   2.669   1.706 -0.1793 -0.5321  0.2271
 5680WAT      O23425   4.713   3.027   6.841 -0.2870  0.4156 -0.3976
 5680WAT     H123426   4.765   2.989   6.900 -2.3847 -1.4055  0.4145
 5680WAT     H223427   4.768   3.076   6.794  2.0035 -0.7106  0.9203
 5680WAT    EPW23428   4.729   3.028   6.843 -0.5449  0.3228  0.0677
 5681WAT      O23429   4.488   0.274   6.111  0.2418  0.1661  0.8962
 5681WAT     H123430   4.570   0.266   6.081  0.1117 -0.2096  0.6423
 5681WAT     H223431   4.452   0.332   6.056  0.8401  1.7171  2.0498
 5681WAT    EPW23432   4.495   0.282   6.098 -0.3772 -0.6281  0.4481
 5682WAT      O23433   4.843   7.312   7.384  0.2384 -0.4904 -0.0561
 5682WAT     H123434   4.910   7.362   7.409  0.1977 -1.1078  1.3727
 5682WAT     H223435   4.844   7.319   7.297 -0.4277  2.8215  0.1003
 5682WAT    EPW23436   4.853   7.320   7.375 -0.5754 -0.1994  0.3084
 5683WAT      O23437   2.464   2.252   0.607  0.4183  0.2365  0.2164
 5683WAT     H123438   2.453   2.171   0.577 -0.6630  0.7525 -0.8845
 5683WAT     H223439   2.545   2.272   0.583  0.3227 -0.1460 -0.4511
 5683WAT    EPW23440   2.474   2.243   0.599  0.2295 -0.1151 -0.2043
 5684WAT      O23441   3.008   3.296   3.050  0.2580 -0.0076 -0.0472
 5684WAT     H123442   3.012   3.208   3.049 -4.2017 -0.4888  1.2340
 5684WAT     H223443   3.014   3.317   2.965  1.0387 -1.5291 -0.4268
 5684WAT    EPW23444   3.010   3.286   3.037  0.3070  0.0817  0.3755
 5685WAT      O23445   2.671   1.121   7.118  0.2562  0.2446 -0.2258
 5685WAT     H123446   2.658   1.133   7.032  0.8427  2.8478 -0.0464
 5685WAT     H223447   2.751   1.085   7.121 -0.4488 -1.4909 -0.7650
 5685WAT    EPW23448   2.681   1.117   7.106  0.7610  0.3818 -0.0095
 5686WAT      O23449   0.897   5.538   3.482  0.2253 -0.0339 -0.2883
 5686WAT     H123450   0.846   5.532   3.553  0.3261 -0.2060 -0.2279
 5686WAT     H223451   0.887   5.620   3.456  0.3523  0.0916  0.0523
 5686WAT    EPW23452   0.888   5.549   3.489 -0.6868 -0.1835  0.4036
 5687WAT      O23453   3.082   6.364   2.332 -0.1459 -0.0378 -0.4895
 5687WAT     H123454   3.066   6.366   2.247  0.2388 -0.4825 -0.5752
 5687WAT     H223455   3.042   6.290   2.358  0.1709 -0.1706 -0.3768
 5687WAT    EPW23456   3.074   6.353   2.324  0.5313  0.5762  0.3007
 5688WAT      O23457   4.365   2.662   0.043 -0.0503 -0.0116  0.7453
 5688WAT     H123458   4.446   2.693   0.033 -0.1380  0.2813  0.9619
 5688WAT     H223459   4.346   2.630  -0.036  0.1127  0.3069  0.5771
 5688WAT    EPW23460   4.374   2.662   0.030 -0.6765 -0.3795  0.0963
 5689WAT      O23461   5.264   5.348   0.785  0.0757 -0.6593  0.2202
 5689WAT     H123462   5.182   5.334   0.760 -0.1691  0.7785  0.1194
 5689WAT     H223463   5.255   5.390   0.862  0.6196  1.2122 -0.6666
 5689WAT    EPW23464   5.251   5.352   0.793 -0.2966  0.1139 -0.3655
 5690WAT      O23465   4.365   0.544   3.751  0.4570 -0.8630  0.8380
 5690WAT     H123466   4.314   0.578   3.813  0.6735 -0.0933  0.6061
 5690WAT     H223467   4.312   0.486   3.711  0.4402 -1.6487  1.9652
 5690WAT    EPW23468   4.350   0.541   3.754  0.0068 -0.1483 -0.3033
 5691WAT      O23469   3.188   7.323   1.531  0.1565 -0.0111 -0.1964
 5691WAT     H123470   3.172   7.406   1.550 -2.9047 -0.3682 -0.7611
 5691WAT     H223471   3.161   7.315   1.448  1.0463 -1.4292 -0.3909
 5691WAT    EPW23472   3.182   7.334   1.522 -0.3535  0.1593  0.3842
 5692WAT      O23473   1.119   5.704   1.638 -0.1482 -0.2600  0.4214
 5692WAT     H123474   1.148   5.726   1.718  0.4697 -2.5839  0.9214
 5692WAT     H223475   1.043   5.746   1.632  0.0616  0.4457  1.9919
 5692WAT    EPW23476   1.112   5.714   1.649  0.9688  0.3970  0.2684
 5693WAT      O23477   3.466   1.797   2.970  0.3077 -0.0216  0.2491
 5693WAT     H123478   3.449   1.883   2.974 -0.2453  0.0100 -1.8086
 5693WAT     H223479   3.394   1.760   3.000  0.0939  0.2358  0.0612
 5693WAT    EPW23480   3.453   1.804   2.975 -0.6818 -0.1475  0.0219
 5694WAT      O23481   0.958   2.022   4.669  0.3366  0.5098  0.0688
 5694WAT     H123482   1.014   1.966   4.633 -0.6425 -0.1494 -0.4787
 5694WAT     H223483   0.912   1.973   4.725  0.4717  1.0932  0.7055
 5694WAT    EPW23484   0.959   2.007   4.672 -0.2273  0.1413 -0.4413
 5695WAT      O23485   5.263   4.912   4.205 -0.5154 -0.1148 -0.1607
 5695WAT     H123486   5.343   4.882   4.189 -0.0440  0.9818 -0.0210
 5695WAT     H223487   5.211   4.843   4.196  0.0241 -0.2059 -3.4900
 5695WAT    EPW23488   5.267   4.898   4.201  0.6612  0.3842  0.3378
 5696WAT      O23489   5.426   4.391   4.257  0.0821 -0.4630  0.2805
 5696WAT     H123490   5.489   4.384   4.198 -0.0793  0.5198 -0.0287
 5696WAT     H223491   5.451   4.458   4.307 -0.0182 -0.9794  1.0438
 5696WAT    EPW23492   5.439   4.400   4.256  0.5108  1.4407  0.0685
 5697WAT      O23493   3.977   1.499   4.465 -0.3870 -0.0102 -0.3282
 5697WAT     H123494   4.002   1.426   4.424  0.0913  0.7838 -1.5084
 5697WAT     H223495   3.898   1.480   4.495  0.6987 -1.8989  1.6728
 5697WAT    EPW23496   3.969   1.485   4.464 -0.2836  0.3584  0.3407
 5698WAT      O23497   1.578   5.026   1.449  0.0912  0.3800 -0.3607
 5698WAT     H123498   1.592   5.095   1.500 -2.3383 -1.1799  2.7894
 5698WAT     H223499   1.523   5.056   1.389 -0.3753  1.3769  0.5248
 5698WAT    EPW23500   1.572   5.040   1.448 -0.4944  0.2537  0.0720
 5699WAT      O23501   3.731   2.290   2.141  0.0599  0.4602 -0.7081
 5699WAT     H123502   3.729   2.229   2.078 -1.8484 -1.0823  0.7118
 5699WAT     H223503   3.799   2.265   2.190  0.4679  0.6348 -1.1704
 5699WAT    EPW23504   3.741   2.277   2.139  0.6210  0.2780  0.1007
 5700WAT      O23505   0.831   0.349   0.410  0.1792  0.1839  0.5704
 5700WAT     H123506   0.803   0.368   0.491  2.0127  1.4192  0.9851
 5700WAT     H223507   0.832   0.262   0.408 -1.1522  0.1113  1.3747
 5700WAT    EPW23508   0.827   0.339   0.422 -0.0734  0.3399 -0.0847
 5701WAT      O23509   1.283   4.626   5.082 -0.3705  0.3665  0.1819
 5701WAT     H123510   1.350   4.634   5.138  0.4941  1.4020 -0.9435
 5701WAT     H223511   1.314   4.572   5.021 -1.2019 -0.5168  0.5143
 5701WAT    EPW23512   1.297   4.619   5.081  0.0941 -0.2305  0.1881
 5702WAT      O23513   2.680   0.253   6.350 -0.0177  0.1039 -0.3068
 5702WAT     H123514   2.651   0.298   6.281 -2.6029  1.9070  1.7687
 5702WAT     H223515   2.755   0.292   6.370 -1.5554  2.8357  0.6361
 5702WAT    EPW23516   2.687   0.265   6.343  0.4742 -0.3962  0.5545
 5703WAT      O23517   4.792   3.794   0.509  0.0573  0.3731 -0.5350
 5703WAT     H123518   4.826   3.716   0.488  0.2196  0.3269 -0.1069
 5703WAT     H223519   4.823   3.809   0.589  1.2750  1.5756 -1.1823
 5703WAT    EPW23520   4.802   3.785   0.518 -0.1459  0.0976  0.3475
 5704WAT      O23521   1.488   3.691   5.203  0.0681  0.1317  0.4970
 5704WAT     H123522   1.540   3.660   5.266 -0.5610 -0.3219  0.7995
 5704WAT     H223523   1.521   3.771   5.188 -0.2472  0.5777  1.9757
 5704WAT    EPW23524   1.501   3.698   5.210 -0.0544 -0.0636  0.1403
 5705WAT      O23525   6.068   1.048   1.257  0.4330  0.1764 -0.1755
 5705WAT     H123526   6.044   0.965   1.247 -2.1017  0.6954  0.7299
 5705WAT     H223527   6.103   1.050   1.337  1.5383 -0.1985 -0.6388
 5705WAT    EPW23528   6.069   1.036   1.268  0.6572  0.6947 -0.1069
 5706WAT      O23529   0.411   5.410   2.760  0.1194 -0.3123 -0.1008
 5706WAT     H123530   0.333   5.371   2.763 -0.0321 -0.0260 -0.2979
 5706WAT     H223531   0.452   5.380   2.831 -0.5418  0.3042  0.5572
 5706WAT    EPW23532   0.406   5.400   2.771  0.1419  0.0460  0.0150
 5707WAT      O23533   3.731   0.031   1.445  0.0910  0.3208  0.1195
 5707WAT     H123534   3.769  -0.047   1.439 -1.6319 -0.4763 -1.1335
 5707WAT     H223535   3.791   0.085   1.412  0.3165 -0.8278 -1.4757
 5707WAT    EPW23536   3.746   0.027   1.439 -0.1084  0.9081  0.1893
 5708WAT      O23537   0.314   1.666   4.653  0.3810 -0.6598 -0.1212
 5708WAT     H123538   0.301   1.620   4.580 -1.4066  1.6258 -1.3872
 5708WAT     H223539   0.311   1.605   4.716 -1.5789 -2.3568 -1.6846
 5708WAT    EPW23540   0.312   1.650   4.652 -0.3826  0.6788  0.1319
 5709WAT      O23541   5.899   3.489   7.005  0.1048 -0.2564 -0.2914
 5709WAT     H123542   5.945   3.499   7.078 -1.6911 -0.4059  0.9428
 5709WAT     H223543   5.852   3.417   7.020 -1.6806  0.7435 -0.7734
 5709WAT    EPW23544   5.899   3.480   7.018 -0.1448 -0.3449 -0.1529
 5710WAT      O23545   2.051   5.508   2.085  0.0868 -0.0299 -0.1699
 5710WAT     H123546   2.089   5.556   2.023  1.6452  0.5305  1.1610
 5710WAT     H223547   2.068   5.426   2.060  1.5815  0.2035  0.0139
 5710WAT    EPW23548   2.059   5.503   2.072  0.1432 -0.4191 -0.1570
 5711WAT      O23549   6.084   4.861   5.245  0.0095 -0.3355 -0.2762
 5711WAT     H123550   6.040   4.931   5.215 -1.0452  0.5213  2.9206
 5711WAT     H223551   6.022   4.800   5.252  0.1440 -0.3968  0.4416
 5711WAT    EPW23552   6.068   4.863   5.241  0.1202  0.1487 -0.7244
 5712WAT      O23553   0.661   1.055   6.186 -0.3489  0.3892 -0.2878
 5712WAT     H123554   0.737   1.037   6.224  0.7181  0.5468 -2.2535
 5712WAT     H223555   0.645   1.138   6.210 -1.8215 -0.6713  3.0862
 5712WAT    EPW23556   0.670   1.065   6.195  0.1904  0.1591  0.4109
 5713WAT      O23557   2.895   3.625   1.909  0.0159  0.2535  0.0379
 5713WAT     H123558   2.909   3.613   1.823 -0.6592 -1.4689  0.1252
 5713WAT     H223559   2.961   3.677   1.933  1.0465 -0.3780 -1.2550
 5713WAT    EPW23560   2.907   3.631   1.900 -0.1341 -0.2987  0.0486
 5714WAT      O23561   7.234   5.471   3.517 -0.2995  0.4714 -0.4956
 5714WAT     H123562   7.176   5.411   3.542  0.8786  0.0146  1.3726
 5714WAT     H223563   7.185   5.535   3.484 -1.6991 -0.7530 -0.8891
 5714WAT    EPW23564   7.218   5.471   3.516  0.1087  0.3635  0.0768
 5715WAT      O23565   7.133   2.746   1.060  0.0210  0.4791 -0.3571
 5715WAT     H123566   7.081   2.744   1.130 -0.8843  0.5477 -1.0069
 5715WAT     H223567   7.086   2.791   1.001 -0.1036 -1.2417 -1.6509
 5715WAT    EPW23568   7.118   2.752   1.061  0.3349  0.4210 -0.0175
 5716WAT      O23569   4.382   7.328   3.159  0.4694 -0.1697  0.4000
 5716WAT     H123570   4.458   7.362   3.184  0.6804  1.0437 -1.7220
 5716WAT     H223571   4.393   7.312   3.074 -1.0700 -1.6291  0.4222
 5716WAT    EPW23572   4.395   7.330   3.150  0.4467  1.3734 -0.4518
 5717WAT      O23573   3.744   1.164   3.285  0.3267 -0.1916 -0.8131
 5717WAT     H123574   3.668   1.135   3.318  0.4265 -1.1037 -1.3604
 5717WAT     H223575   3.758   1.238   3.329  0.2195 -1.1172  0.8648
 5717WAT    EPW23576   3.735   1.170   3.297 -0.1012 -0.2325  0.1774
 5718WAT      O23577   7.232   6.204   1.639 -0.1916  0.4504  0.3087
 5718WAT     H123578   7.171   6.262   1.617 -0.0618  0.4437 -0.0767
 5718WAT     H223579   7.242   6.156   1.566 -0.5642 -0.2951  0.7314
 5718WAT    EPW23580   7.224   6.205   1.625  0.6544 -0.0235 -0.5362
 5719WAT      O23581   1.083   5.137   3.630 -0.3522 -0.2061  0.0801
 5719WAT     H123582   0.997   5.132   3.622 -0.1661 -1.1887 -1.7503
 5719WAT     H223583   1.103   5.211   3.588 -0.1628 -0.8030 -0.8851
 5719WAT    EPW23584   1.073   5.147   3.623 -0.4814 -0.0675 -0.3063
 5720WAT      O23585   1.804   2.950   3.975  0.3302  0.0975 -0.1144
 5720WAT     H123586   1.771   2.870   3.989 -0.2793  0.4677  0.6531
 5720WAT     H223587   1.757   3.001   4.028  0.9967  0.9053 -0.2809
 5720WAT    EPW23588   1.792   2.945   3.985  0.2430 -0.1136  0.0344
 5721WAT      O23589   1.949   2.808   5.414 -0.2938  0.5312 -0.1684
 5721WAT     H123590   1.916   2.875   5.368 -0.0613  1.5086  1.0199
 5721WAT     H223591   2.014   2.779   5.364 -0.6411  0.9518 -0.8826
 5721WAT    EPW23592   1.954   2.814   5.400  0.4032  0.0526 -0.3949
 5722WAT      O23593   1.167   2.622   1.861  0.7199  0.4436  0.2861
 5722WAT     H123594   1.227   2.639   1.800 -0.1277 -0.9607 -1.0085
 5722WAT     H223595   1.109   2.686   1.851  0.1521 -0.2324 -1.0229
 5722WAT    EPW23596   1.168   2.634   1.850 -0.0971  0.8470 -0.3794
 5723WAT      O23597   7.516   0.729   1.413  0.8215  0.2078  0.1942
 5723WAT     H123598   7.523   0.812   1.439 -1.3537  0.2638  0.7541
 5723WAT     H223599   7.438   0.726   1.374  0.8288 -1.5771  0.2357
 5723WAT    EPW23600   7.506   0.741   1.411 -0.4656 -0.1553  0.2052
 5724WAT      O23601   5.793   4.866   0.996 -0.6166  0.3816  0.1752
 5724WAT     H123602   5.728   4.871   0.939 -0.3944  1.5185 -0.0035
 5724WAT     H223603   5.766   4.917   1.062 -0.9122 -0.9769  1.1512
 5724WAT    EPW23604   5.779   4.875   0.998  0.3867 -0.7104  0.3185
 5725WAT      O23605   5.420   3.398   2.617  0.3585  0.6213  0.3124
 5725WAT     H123606   5.427   3.331   2.672  1.8969  2.2929  2.3557
 5725WAT     H223607   5.355   3.375   2.564  1.2410 -2.6896  0.4987
 5725WAT    EPW23608   5.412   3.385   2.618  0.3072 -0.1080 -0.0750
 5726WAT      O23609   5.418   1.465   6.879 -0.3055  0.8376 -0.0985
 5726WAT     H123610   5.498   1.499   6.883 -0.1210  0.3353  0.6166
 5726WAT     H223611   5.429   1.390   6.837 -0.2659  0.4160  0.6431
 5726WAT    EPW23612   5.431   1.459   6.874  0.1235  0.1930 -0.3686
 5727WAT      O23613   7.285   5.498   3.852  0.4320  0.2163  0.4616
 5727WAT     H123614   7.296   5.426   3.805 -0.2992 -0.1868  0.8905
 5727WAT     H223615   7.253   5.555   3.795  0.5451  0.0516  0.2325
 5727WAT    EPW23616   7.282   5.496   3.837 -0.4707  0.7570  0.3478
 5728WAT      O23617   1.401   3.940   1.093  0.0599 -0.5837 -0.0022
 5728WAT     H123618   1.442   3.900   1.159 -0.2368 -0.9460 -0.0340
 5728WAT     H223619   1.412   4.025   1.110  0.2407 -0.6792  0.3538
 5728WAT    EPW23620   1.408   3.946   1.105 -0.4004  0.3268  0.1422
 5729WAT      O23621   6.304   6.411   2.515 -0.2593  0.0192  0.1616
 5729WAT     H123622   6.315   6.475   2.574  0.9361 -0.9127  0.9952
 5729WAT     H223623   6.218   6.411   2.502 -0.6836 -0.1844  2.4651
 5729WAT    EPW23624   6.293   6.421   2.522  0.1398  0.1028 -0.0975
 5730WAT      O23625   1.835   3.367   0.964  0.3750 -0.0895  0.7168
 5730WAT     H123626   1.803   3.439   0.927 -1.1336 -0.5390  1.0764
 5730WAT     H223627   1.913   3.392   0.995 -0.3025  1.4857  1.2106
 5730WAT    EPW23628   1.842   3.381   0.963  0.1950  0.2632  0.2360
 5731WAT      O23629   1.065   5.327   2.938  0.0840  0.4801 -0.3137
 5731WAT     H123630   1.141   5.289   2.917 -0.8467 -2.4749  1.0686
 5731WAT     H223631   1.066   5.328   3.025 -1.6143 -0.0829 -0.2418
 5731WAT    EPW23632   1.076   5.322   2.948  0.4571 -1.2817  0.3045
 5732WAT      O23633   6.255   6.300   1.850  0.3954 -0.4125 -0.4311
 5732WAT     H123634   6.337   6.297   1.878 -0.2119 -0.0077  1.5450
 5732WAT     H223635   6.243   6.385   1.831  0.3243 -0.3876 -0.2843
 5732WAT    EPW23636   6.265   6.312   1.851 -0.2957 -0.0974 -0.3300
 5733WAT      O23637   6.378   7.395   0.361 -0.0766  0.0409  0.1599
 5733WAT     H123638   6.354   7.436   0.289  0.0993 -0.7020 -0.3355
 5733WAT     H223639   6.430   7.452   0.401  1.3893 -0.2400 -1.2555
 5733WAT    EPW23640   6.382   7.409   0.356 -0.0089  0.2063 -0.2938
 5734WAT      O23641   0.744   1.114   0.816 -0.1668 -0.2270  0.0478
 5734WAT     H123642   0.764   1.165   0.747 -1.6382 -0.4452 -0.5659
 5734WAT     H223643   0.758   1.166   0.884  1.7524 -0.1337 -0.3374
 5734WAT    EPW23644   0.749   1.129   0.816  0.2406 -0.2297 -0.4095
 5735WAT      O23645   3.832   5.010   1.732 -0.4514  0.0420  0.1847
 5735WAT     H123646   3.811   5.025   1.816 -1.3902  2.8412 -0.4508
 5735WAT     H223647   3.897   4.951   1.738 -1.8717 -1.4700  2.7335
 5735WAT    EPW23648   3.839   5.003   1.745  0.4685 -0.0774  0.5603
 5736WAT      O23649   0.608   0.803   2.021  0.1213  0.2260 -0.6729
 5736WAT     H123650   0.597   0.788   1.936  2.7079  0.0265 -1.0368
 5736WAT     H223651   0.598   0.890   2.028  4.2947  1.0420 -2.1212
 5736WAT    EPW23652   0.605   0.814   2.009  0.2388 -0.5922  0.0122
 5737WAT      O23653   6.054   1.561   6.797 -0.6922 -0.0255 -0.9702
 5737WAT     H123654   6.097   1.497   6.758  1.8185  0.9700 -0.0634
 5737WAT     H223655   6.011   1.521   6.861  1.8706 -0.7854  0.4144
 5737WAT    EPW23656   6.054   1.546   6.801  0.3733  0.3174  0.0137
 5738WAT      O23657   6.539   4.723   0.975 -0.0135  0.6977 -0.5091
 5738WAT     H123658   6.514   4.653   0.928  0.6117  0.4191 -0.4399
 5738WAT     H223659   6.466   4.770   0.982 -0.2523  0.4685 -1.2858
 5738WAT    EPW23660   6.525   4.719   0.969 -0.3834 -0.1357  0.5746
 5739WAT      O23661   3.893   2.733   6.679  0.2179  0.2100 -0.4794
 5739WAT     H123662   3.928   2.664   6.637 -1.3555 -0.0519 -1.4709
 5739WAT     H223663   3.895   2.796   6.619 -2.6264 -0.3336 -1.3060
 5739WAT    EPW23664   3.898   2.732   6.664 -0.4202 -0.0418  0.3710
 5740WAT      O23665   6.647   1.228   3.607  0.0822  0.6362  0.2648
 5740WAT     H123666   6.574   1.246   3.561  0.0568  1.4439  0.6010
 5740WAT     H223667   6.619   1.173   3.668  0.3659 -1.5482 -1.4454
 5740WAT    EPW23668   6.632   1.223   3.609  0.3899  0.3719 -0.3041
 5741WAT      O23669   2.140   5.263   5.376 -0.1516  0.0376  0.3080
 5741WAT     H123670   2.157   5.273   5.291 -0.1980  0.1212  0.3085
 5741WAT     H223671   2.062   5.301   5.386  0.5858  1.5412  0.6979
 5741WAT    EPW23672   2.131   5.270   5.365 -0.0496  0.5340 -0.3117
 5742WAT      O23673   0.678   2.357   3.344  0.1203 -0.0789  0.1174
 5742WAT     H123674   0.726   2.284   3.338 -1.0128 -0.7677 -1.4214
 5742WAT     H223675   0.597   2.327   3.350 -0.2909  1.0681  0.5259
 5742WAT    EPW23676   0.673   2.342   3.344  0.0380  0.4204  0.0501
 5743WAT      O23677   1.637   2.171   4.953 -0.1703  0.0413 -0.3566
 5743WAT     H123678   1.558   2.138   4.968  0.1085 -0.0220  1.1129
 5743WAT     H223679   1.624   2.257   4.953 -0.2713  0.0257 -0.2903
 5743WAT    EPW23680   1.624   2.179   4.955  0.0652 -0.5542  0.0306
 5744WAT      O23681   7.064   7.042   3.848 -0.2600 -0.0761  0.0477
 5744WAT     H123682   7.034   7.109   3.897 -2.2165 -0.9907  0.2077
 5744WAT     H223683   7.014   7.046   3.776  1.1686 -0.0142 -0.9776
 5744WAT    EPW23684   7.052   7.053   3.845  0.5558 -0.3108  0.4909
 5745WAT      O23685   2.084   6.171   2.344  0.3431 -0.1621 -0.0376
 5745WAT     H123686   2.133   6.198   2.411  2.7571 -0.7007 -1.4352
 5745WAT     H223687   2.097   6.233   2.284 -1.2407 -0.0322 -0.2787
 5745WAT    EPW23688   2.093   6.184   2.345 -0.5214 -0.0399  0.2126
 5746WAT      O23689   2.433   5.285   4.595 -0.6198  0.8895  0.0643
 5746WAT     H123690   2.431   5.355   4.647 -0.6860 -0.4337  1.9756
 5746WAT     H223691   2.502   5.240   4.625  0.1041  0.6316 -1.8630
 5746WAT    EPW23692   2.443   5.289   4.607 -0.0966 -0.4119 -0.0836
 5747WAT      O23693   2.885   0.538   4.670 -0.1428 -0.3259 -0.6471
 5747WAT     H123694   2.968   0.565   4.658  0.3506 -1.7687 -0.6214
 5747WAT     H223695   2.894   0.461   4.709 -1.5029 -0.6473 -0.9271
 5747WAT    EPW23696   2.899   0.531   4.674  0.2139  0.2341  0.5194
 5748WAT      O23697   0.775   4.935   2.917  0.0585  0.6229 -0.5649
 5748WAT     H123698   0.692   4.938   2.946 -0.0037 -0.2015 -0.6546
 5748WAT     H223699   0.772   4.984   2.845 -0.1636  1.2644 -0.1402
 5748WAT    EPW23700   0.762   4.943   2.911  0.3359  0.2680 -0.7211
 5749WAT      O23701   5.997   6.593   0.048 -0.5302 -0.3963 -0.2702
 5749WAT     H123702   5.995   6.608   0.134  0.5900  0.9095 -0.4376
 5749WAT     H223703   5.914   6.573   0.029 -0.9362 -0.0209  0.9965
 5749WAT    EPW23704   5.984   6.593   0.058  0.1396  0.1678 -0.1950
 5750WAT      O23705   6.620   6.989   6.013 -0.9799 -0.0654  0.3889
 5750WAT     H123706   6.702   7.017   5.998 -1.1356  0.6223  0.7852
 5750WAT     H223707   6.630   6.902   6.022  0.1030  0.2228  2.8391
 5750WAT    EPW23708   6.634   6.980   6.012  0.4723  0.0565  0.4790
 5751WAT      O23709   7.263   1.791   0.882  0.1572  0.0179  0.1128
 5751WAT     H123710   7.261   1.706   0.903 -0.1640  0.0568  0.2464
 5751WAT     H223711   7.222   1.829   0.949 -1.5341  0.0690 -0.9060
 5751WAT    EPW23712   7.257   1.784   0.895 -0.3469  0.0411  0.1852
 5752WAT      O23713   7.203   5.150   2.442 -0.7324 -0.3484  0.7195
 5752WAT     H123714   7.186   5.074   2.481 -2.7679 -0.0600  0.5104
 5752WAT     H223715   7.277   5.135   2.398 -0.4467 -1.8184  1.6322
 5752WAT    EPW23716   7.211   5.137   2.442  0.2907 -0.0981  0.2577
 5753WAT      O23717   2.974   7.418   6.173  0.0058  0.4107 -0.1007
 5753WAT     H123718   2.907   7.469   6.152 -0.0027 -0.1043 -1.3726
 5753WAT     H223719   3.035   7.438   6.115  0.6094  0.1510  0.4261
 5753WAT    EPW23720   2.973   7.429   6.162  0.4845 -0.2078 -0.2779
 5754WAT      O23721   0.476   0.755   0.646 -0.3635  0.0610 -0.0334
 5754WAT     H123722   0.486   0.801   0.573  3.2256 -1.6650 -0.8678
 5754WAT     H223723   0.422   0.691   0.623  0.6742 -0.4240 -1.2749
 5754WAT    EPW23724   0.470   0.752   0.632 -0.4543 -0.0088 -0.1489
 5755WAT      O23725   4.386   0.211   7.417 -0.3465 -0.3949  0.3822
 5755WAT     H123726   4.386   0.274   7.356  1.4736 -0.3900  0.3224
 5755WAT     H223727   4.447   0.156   7.389 -0.2679 -0.9798  1.6388
 5755WAT    EPW23728   4.395   0.212   7.404 -0.1099 -0.5606  0.4646
 5756WAT      O23729   7.615   5.878   5.424  0.5313 -0.4172 -0.0007
 5756WAT     H123730   7.672   5.816   5.447  1.5749 -0.1412 -1.7235
 5756WAT     H223731   7.622   5.937   5.489  0.8162 -1.2501  0.7475
 5756WAT    EPW23732   7.625   5.878   5.437  1.2666 -1.1931 -0.4827
 5757WAT      O23733   7.270   4.616   1.288 -0.3301  0.3406  0.0095
 5757WAT     H123734   7.252   4.557   1.349 -0.2590 -0.1510 -0.4295
 5757WAT     H223735   7.237   4.581   1.215 -1.5547  1.4937 -0.0320
 5757WAT    EPW23736   7.262   4.602   1.286  0.0989 -0.6522  0.1541
 5758WAT      O23737   2.389   6.549   5.501 -0.2444  0.1887 -0.5718
 5758WAT     H123738   2.328   6.488   5.489  0.6922 -0.8555 -0.2446
 5758WAT     H223739   2.452   6.527   5.445  0.8033 -0.1399  0.6671
 5758WAT    EPW23740   2.389   6.537   5.491 -0.3923 -0.3349  0.1165
 5759WAT      O23741   6.073   5.859   6.008 -0.4439 -0.5016  0.0271
 5759WAT     H123742   6.100   5.846   5.926  0.5241  0.1348  0.2231
 5759WAT     H223743   5.987   5.872   6.000 -0.5740 -1.7149 -0.7291
 5759WAT    EPW23744   6.064   5.859   5.995  0.1678 -0.4297  0.6731
 5760WAT      O23745   0.169   1.424   6.268  0.2032  0.0136 -0.9562
 5760WAT     H123746   0.211   1.363   6.223 -0.2493 -0.3067 -0.9502
 5760WAT     H223747   0.138   1.382   6.338  0.0507  0.2862 -0.8543
 5760WAT    EPW23748   0.170   1.409   6.272 -0.0696 -0.7233  0.0872
 5761WAT      O23749   0.382   7.333   2.292 -0.2056  0.4073  0.6401
 5761WAT     H123750   0.369   7.258   2.250 -0.2995 -0.1153  1.5948
 5761WAT     H223751   0.387   7.392   2.227  0.7789 -0.5290 -0.1712
 5761WAT    EPW23752   0.381   7.331   2.276  0.4543 -0.0450  0.1969
 5762WAT      O23753   0.719   3.609   2.874  0.0642 -0.5997  0.3480
 5762WAT     H123754   0.690   3.543   2.923 -0.1256 -2.2335 -1.7694
 5762WAT     H223755   0.797   3.581   2.846  1.9464  1.9080  2.5911
 5762WAT    EPW23756   0.726   3.595   2.877 -0.8472 -0.1485 -0.4192
 5763WAT      O23757   2.543   3.271   1.598  0.0842 -0.1435 -0.1444
 5763WAT     H123758   2.481   3.239   1.651 -0.6440 -0.5547 -1.2330
 5763WAT     H223759   2.530   3.357   1.601 -1.8153 -0.2936 -1.8255
 5763WAT    EPW23760   2.532   3.279   1.607  0.4466  0.2674  0.1110
 5764WAT      O23761   3.377   5.640   1.825  0.8126  0.1823 -0.2699
 5764WAT     H123762   3.320   5.665   1.886  1.0189  0.5493 -0.2286
 5764WAT     H223763   3.412   5.567   1.859 -0.0176 -0.3489 -0.5357
 5764WAT    EPW23764   3.374   5.633   1.839 -0.4326 -0.7536 -0.0102
 5765WAT      O23765   6.653   5.083   3.915 -0.0718 -0.6367 -0.2865
 5765WAT     H123766   6.698   5.107   3.986 -0.0300 -0.6267 -0.3162
 5765WAT     H223767   6.591   5.030   3.947 -0.8306  0.3475 -0.0772
 5765WAT    EPW23768   6.650   5.078   3.930  0.3844 -0.2725  0.0644
 5766WAT      O23769   1.210   6.785   5.698  0.8835  0.5261  1.3012
 5766WAT     H123770   1.293   6.768   5.674  1.2707 -0.4712  3.1670
 5766WAT     H223771   1.206   6.757   5.780 -2.3635 -3.1638  0.1866
 5766WAT    EPW23772   1.222   6.778   5.706  0.7848  0.6124 -0.0518
 5767WAT      O23773   2.101   1.096   2.003  0.2833  0.3763 -0.3223
 5767WAT     H123774   2.109   1.046   1.931 -0.5258  0.9026 -0.7958
 5767WAT     H223775   2.120   1.176   1.974 -1.5397  0.8578 -0.3562
 5767WAT    EPW23776   2.105   1.100   1.988 -0.0625  0.4412  0.1325
 5768WAT      O23777   2.659   4.941   5.693 -0.3039 -0.0112  0.1008
 5768WAT     H123778   2.590   4.991   5.677  1.0261  1.6970 -0.5518
 5768WAT     H223779   2.711   4.953   5.624  1.5112  0.3372  1.4418
 5768WAT    EPW23780   2.657   4.950   5.681  0.2376 -0.0427  0.1285
 5769WAT      O23781   6.789   5.588   1.531 -0.4797  0.8368 -0.5870
 5769WAT     H123782   6.755   5.532   1.589 -1.8524  1.6390 -0.6028
 5769WAT     H223783   6.766   5.554   1.454 -2.4838  2.0792 -0.5895
 5769WAT    EPW23784   6.781   5.574   1.528 -0.1073  0.3675  0.8125
 5770WAT      O23785   5.840   7.523   3.202 -0.1400 -0.3444  0.4891
 5770WAT     H123786   5.881   7.595   3.173 -2.0975  0.5160 -0.3483
 5770WAT     H223787   5.868   7.516   3.284  0.2813  1.2643  0.5307
 5770WAT    EPW23788   5.850   7.533   3.210 -0.3315 -0.2834 -0.0702
 5771WAT      O23789   1.557   6.490   2.120 -0.2920 -0.5727 -0.8971
 5771WAT     H123790   1.628   6.472   2.167 -0.2577 -0.4410 -0.8997
 5771WAT     H223791   1.545   6.575   2.133 -1.6673 -0.9580  0.8155
 5771WAT    EPW23792   1.566   6.500   2.129  0.5226  0.4205 -0.5157
 5772WAT      O23793   1.816   6.535   0.277  0.0365 -0.7358 -0.3960
 5772WAT     H123794   1.891   6.503   0.309 -0.3503  0.4318  1.9004
 5772WAT     H223795   1.841   6.605   0.233  0.3554 -0.6947 -0.1551
 5772WAT    EPW23796   1.831   6.540   0.275 -0.0280 -0.1595  0.5144
 5773WAT      O23797   7.208   4.753   0.441 -0.2309 -0.4351  0.0014
 5773WAT     H123798   7.245   4.755   0.362 -0.1752  1.0913  0.0450
 5773WAT     H223799   7.127   4.782   0.427  0.0209  0.6246  0.5983
 5773WAT    EPW23800   7.201   4.758   0.427  0.2669 -0.0602 -0.2912
 5774WAT      O23801   3.042   5.097   0.530 -0.7743 -0.0445 -0.2524
 5774WAT     H123802   3.000   5.163   0.490  1.1224  0.9490 -0.7035
 5774WAT     H223803   3.010   5.099   0.611 -3.1620 -0.7594 -1.0685
 5774WAT    EPW23804   3.031   5.107   0.536 -0.0223 -0.1345  0.2691
 5775WAT      O23805   0.347   3.638   6.798  0.2917  0.0819 -0.4897
 5775WAT     H123806   0.350   3.612   6.715 -0.3623  1.4080 -0.9541
 5775WAT     H223807   0.323   3.566   6.841 -1.0969 -0.2124 -1.6716
 5775WAT    EPW23808   0.344   3.623   6.792 -0.0179 -0.5323  0.1428
 5776WAT      O23809   5.407   5.694   2.433 -0.1838  0.5502 -0.7959
 5776WAT     H123810   5.352   5.652   2.486  1.1389 -1.6339 -1.0196
 5776WAT     H223811   5.456   5.742   2.487 -1.4649  1.5870 -0.4984
 5776WAT    EPW23812   5.406   5.695   2.449  0.1389  0.2625 -0.1989
 5777WAT      O23813   3.312   4.798   0.472 -0.3907 -0.1792  0.0177
 5777WAT     H123814   3.399   4.802   0.485  0.0189 -1.7018 -1.7281
 5777WAT     H223815   3.294   4.872   0.430 -0.4491  1.2998  2.4418
 5777WAT    EPW23816   3.322   4.809   0.468 -0.5977  0.8405  0.1490
 5778WAT      O23817   4.395   1.163   5.559 -0.2158 -0.6772  0.2635
 5778WAT     H123818   4.363   1.091   5.521 -1.0848 -0.8613  1.2958
 5778WAT     H223819   4.427   1.209   5.492 -1.3183 -1.1716 -0.6344
 5778WAT    EPW23820   4.395   1.159   5.543 -0.0534 -0.5351 -0.0397
 5779WAT      O23821   5.058   6.489   6.320 -0.1054  0.2505 -0.0729
 5779WAT     H123822   5.016   6.491   6.397  1.7760 -1.2136  1.1134
 5779WAT     H223823   4.997   6.467   6.263 -1.0766 -1.2273  1.4589
 5779WAT    EPW23824   5.043   6.486   6.323  0.5496 -0.3979 -0.2621
 5780WAT      O23825   5.477   4.326   5.089 -0.1210  0.0059  0.2143
 5780WAT     H123826   5.539   4.338   5.028 -1.1639 -1.3422 -1.1908
 5780WAT     H223827   5.512   4.268   5.143 -0.3700 -1.3159 -0.9847
 5780WAT    EPW23828   5.491   4.319   5.088  0.2012  0.2057  0.2778
 5781WAT      O23829   4.028   7.074   3.244  0.1611  0.0631  0.4593
 5781WAT     H123830   4.027   7.041   3.324  0.3503 -0.3433  0.2939
 5781WAT     H223831   4.112   7.069   3.220  0.0307 -0.2559  0.0541
 5781WAT    EPW23832   4.040   7.069   3.252 -0.4896  0.3722  1.0864
 5782WAT      O23833   4.381   7.024   0.158  0.6563  0.0289 -0.0734
 5782WAT     H123834   4.377   6.986   0.079 -0.0486  1.6365 -0.8625
 5782WAT     H223835   4.451   7.076   0.151  0.2981  0.5487  0.1758
 5782WAT    EPW23836   4.391   7.026   0.145 -0.1831 -0.5566  1.0078
 5783WAT      O23837   1.284   7.156   5.914 -0.2666  0.0964  0.1621
 5783WAT     H123838   1.275   7.069   5.913  0.7759 -0.0325 -0.8646
 5783WAT     H223839   1.341   7.171   5.849 -1.6736  1.7097 -0.7888
 5783WAT    EPW23840   1.291   7.145   5.904 -0.2532  0.3092  0.0860
 5784WAT      O23841   6.186   4.277   0.782 -0.0961 -0.7430  0.1407
 5784WAT     H123842   6.223   4.198   0.781 -0.5826 -0.9995  1.0456
 5784WAT     H223843   6.157   4.285   0.864 -0.3141  0.2556 -0.0218
 5784WAT    EPW23844   6.187   4.267   0.794 -0.1347  0.0429 -0.4422
 5785WAT      O23845   6.467   1.199   2.742  0.5750  0.3539  0.8936
 5785WAT     H123846   6.391   1.214   2.702  0.5292  0.7660  1.1258
 5785WAT     H223847   6.511   1.149   2.685  0.5223  0.9539  0.3127
 5785WAT    EPW23848   6.462   1.194   2.728  0.0385  0.1665 -0.2125
 5786WAT      O23849   6.510   5.807   0.035 -0.4798  0.6920 -0.1612
 5786WAT     H123850   6.424   5.820   0.046 -1.0069 -1.4518 -1.2062
 5786WAT     H223851   6.524   5.837  -0.046 -1.1308 -2.2113 -1.4919
 5786WAT    EPW23852   6.499   5.814   0.024  0.2417  0.6795  0.3186
 5787WAT      O23853   6.434   5.084   6.101 -0.4400  0.7343  0.2324
 5787WAT     H123854   6.474   5.093   6.024 -1.4358 -0.2438 -0.4462
 5787WAT     H223855   6.498   5.094   6.159  0.6487 -0.0380 -0.7763
 5787WAT    EPW23856   6.449   5.087   6.098 -0.3126  0.2007 -0.5117
 5788WAT      O23857   6.735   2.810   5.604  0.4377 -0.0775  0.2653
 5788WAT     H123858   6.817   2.804   5.576  0.1214 -0.3594 -0.6198
 5788WAT     H223859   6.702   2.731   5.589 -0.4045  0.4377 -0.7311
 5788WAT    EPW23860   6.742   2.798   5.598  0.0168  0.4891  0.2425
 5789WAT      O23861   2.690   1.267   1.243 -0.2325  0.3079  0.4095
 5789WAT     H123862   2.703   1.249   1.159  0.0784 -1.3273  0.7620
 5789WAT     H223863   2.770   1.271   1.276 -0.3779 -0.3060  0.8518
 5789WAT    EPW23864   2.704   1.265   1.235  0.2053  0.0455 -1.3436
 5790WAT      O23865   5.665   7.148   5.202  0.3209 -0.0448  0.8586
 5790WAT     H123866   5.597   7.093   5.201 -1.0184  1.4655 -1.4961
 5790WAT     H223867   5.717   7.117   5.139 -0.0017  0.8106  0.1483
 5790WAT    EPW23868   5.662   7.136   5.192 -0.4386 -0.6016  0.2279
 5791WAT      O23869   7.288   1.757   0.599 -0.0188  0.0610 -0.2573
 5791WAT     H123870   7.304   1.776   0.683  1.3707 -3.6305  0.5046
 5791WAT     H223871   7.219   1.705   0.602 -0.2995  0.3239 -1.5075
 5791WAT    EPW23872   7.280   1.752   0.612  0.3513 -0.5163 -0.1352
 5792WAT      O23873   3.973   6.014   6.220  0.0763 -0.2553 -0.4098
 5792WAT     H123874   4.043   6.058   6.248 -0.2442 -0.2047  0.3521
 5792WAT     H223875   3.935   5.988   6.294 -1.4644  0.9018 -0.7397
 5792WAT    EPW23876   3.978   6.016   6.235  0.0247 -0.2901  0.1029
 5793WAT      O23877   1.080   0.138   0.500  0.1529 -0.0672  0.5403
 5793WAT     H123878   1.096   0.068   0.451 -3.1690  0.3364 -1.4479
 5793WAT     H223879   1.051   0.104   0.575  1.7571 -0.7077  0.9213
 5793WAT    EPW23880   1.078   0.123   0.504 -0.5501 -0.5618  0.8954
 5794WAT      O23881   1.793   2.106   7.541 -0.1791 -0.5576  0.1564
 5794WAT     H123882   1.860   2.121   7.596  1.2016 -0.6754 -1.4023
 5794WAT     H223883   1.749   2.181   7.542 -0.3515 -0.6607  1.6275
 5794WAT    EPW23884   1.797   2.119   7.549  0.2630  0.1385 -0.6570
 5795WAT      O23885   7.491   7.441   4.109 -0.2467 -0.0997 -0.2723
 5795WAT     H123886   7.541   7.399   4.167 -0.4271 -1.6698 -1.1776
 5795WAT     H223887   7.411   7.434   4.144 -0.0746  0.9965  0.3874
 5795WAT    EPW23888   7.486   7.434   4.123  0.1081 -0.5272 -0.2612
 5796WAT      O23889   6.201   3.612   6.938 -0.4665  0.3482  0.0870
 5796WAT     H123890   6.154   3.601   7.011 -0.2389 -1.1820  0.0310
 5796WAT     H223891   6.281   3.585   6.961 -0.5178 -0.6950 -0.8514
 5796WAT    EPW23892   6.206   3.606   6.952  0.0440  0.5465  0.8225
 5797WAT      O23893   3.372   6.812   7.423 -0.0638 -0.7925 -0.5958
 5797WAT     H123894   3.361   6.777   7.502 -2.2308  0.2138 -0.3851
 5797WAT     H223895   3.430   6.876   7.437 -1.6060  0.4142  0.5594
 5797WAT    EPW23896   3.379   6.816   7.436 -0.0142  0.3598 -0.4441
 5798WAT      O23897   1.598   4.083   3.271 -0.6207  0.0025 -0.6314
 5798WAT     H123898   1.599   4.164   3.238  1.3416 -0.5235 -2.0280
 5798WAT     H223899   1.538   4.088   3.335  0.1699  2.8305  0.0432
 5798WAT    EPW23900   1.589   4.096   3.276 -0.2148  0.5882 -0.1935
 5799WAT      O23901   4.558   4.986   6.275  0.0734 -0.1010  0.2284
 5799WAT     H123902   4.537   4.917   6.324  0.2970 -1.1710 -1.0888
 5799WAT     H223903   4.486   5.035   6.275 -0.2978 -0.6366  0.7045
 5799WAT    EPW23904   4.545   4.983   6.282  0.1753 -0.3168  0.3143
 5800WAT      O23905   3.082   1.180   0.233  0.0244 -0.1707  0.0690
 5800WAT     H123906   3.128   1.149   0.165  0.2938  0.6673 -0.1391
 5800WAT     H223907   3.002   1.149   0.220 -0.0464  0.3820 -0.9062
 5800WAT    EPW23908   3.077   1.171   0.221 -0.4695 -0.5643  0.3994
 5801WAT      O23909   6.210   3.035   5.174 -0.0568  0.4639  0.3562
 5801WAT     H123910   6.204   3.057   5.258 -2.1722  0.7575  0.1738
 5801WAT     H223911   6.194   3.109   5.132 -0.4018  0.0242 -0.2992
 5801WAT    EPW23912   6.207   3.049   5.180  0.7012 -0.7017  0.2331
 5802WAT      O23913   0.813   6.677   1.722 -0.1565  0.4879 -0.4403
 5802WAT     H123914   0.799   6.677   1.636 -0.1072 -1.3679 -0.5018
 5802WAT     H223915   0.791   6.596   1.746 -1.5534  1.3895  1.5463
 5802WAT    EPW23916   0.808   6.665   1.713 -0.3088  0.0803  0.1576
 5803WAT      O23917   0.826   7.235   6.091  0.4597 -0.4001 -0.6019
 5803WAT     H123918   0.878   7.236   6.022 -1.0854  2.0343 -1.8394
 5803WAT     H223919   0.746   7.234   6.057 -0.4167 -2.2652  1.2302
 5803WAT    EPW23920   0.822   7.235   6.076 -0.5344 -0.2308  0.1398
 5804WAT      O23921   2.831   7.295   1.986  0.2425 -0.2646  0.4001
 5804WAT     H123922   2.882   7.225   1.977 -0.9022 -0.9380 -1.3113
 5804WAT     H223923   2.813   7.318   1.904 -0.2525  1.4230  0.9433
 5804WAT    EPW23924   2.836   7.288   1.973 -0.3642 -0.2914  0.0120
 5805WAT      O23925   1.295   5.245   4.896  0.3320  0.2627 -0.0321
 5805WAT     H123926   1.372   5.226   4.860  0.3430 -0.4096  0.3296
 5805WAT     H223927   1.308   5.232   4.981 -0.5767 -1.3144 -0.0881
 5805WAT    EPW23928   1.308   5.241   4.903  0.0959 -0.7011 -0.0680
 5806WAT      O23929   5.320   6.620   1.259  0.0812  0.2162  0.5533
 5806WAT     H123930   5.349   6.541   1.281 -0.6852 -1.0549 -2.4304
 5806WAT     H223931   5.364   6.638   1.185  0.2821  2.6470  1.1791
 5806WAT    EPW23932   5.331   6.611   1.251 -0.2562 -0.4719  0.1610
 5807WAT      O23933   2.609   3.651   1.889 -0.2570  0.2292  0.2973
 5807WAT     H123934   2.576   3.714   1.839  1.4619  1.9960  1.2893
 5807WAT     H223935   2.695   3.660   1.880  0.0709 -0.4704  2.2593
 5807WAT    EPW23936   2.617   3.661   1.880  0.1561  0.3484  0.0522
 5808WAT      O23937   2.970   4.220   1.933 -0.0876 -0.3002 -0.5564
 5808WAT     H123938   2.976   4.294   1.887 -1.1710  0.2747  0.2066
 5808WAT     H223939   2.937   4.245   2.009 -0.1995 -1.5326 -0.1746
 5808WAT    EPW23940   2.966   4.235   1.937 -0.0437 -0.0327 -0.0433
 5809WAT      O23941   0.253   0.139   6.108  0.1751  0.1523  0.0748
 5809WAT     H123942   0.193   0.179   6.157  1.6311  1.1639  1.1151
 5809WAT     H223943   0.229   0.055   6.110 -1.1742  0.5220  0.4553
 5809WAT    EPW23944   0.240   0.132   6.115 -0.0641  0.3673  0.3056
 5810WAT      O23945   6.795   6.215   7.469  0.5003 -0.0704  0.1655
 5810WAT     H123946   6.844   6.216   7.541  0.4017  2.3835  0.2812
 5810WAT     H223947   6.723   6.259   7.492  0.3113  0.4480 -1.3004
 5810WAT    EPW23948   6.792   6.222   7.483  0.8500 -0.3604  0.6203
 5811WAT      O23949   4.591   5.881   6.582 -0.0125 -0.0391 -0.0286
 5811WAT     H123950   4.672   5.853   6.595  0.3837  0.9288 -0.2844
 5811WAT     H223951   4.578   5.936   6.649  0.1539  1.0516 -0.8670
 5811WAT    EPW23952   4.601   5.885   6.594  0.1256  0.0229 -0.5861
 5812WAT      O23953   6.398   2.184   6.710 -0.2388 -0.8912  0.7503
 5812WAT     H123954   6.453   2.251   6.706 -0.4833 -0.7150  0.2198
 5812WAT     H223955   6.320   2.223   6.719 -0.3019 -1.1286  1.2513
 5812WAT    EPW23956   6.394   2.200   6.711  0.1045 -0.3107 -0.1115
 5813WAT      O23957   6.683   2.069   4.618  0.4358 -0.7970 -0.4394
 5813WAT     H123958   6.739   2.034   4.561  0.0740 -2.1205 -0.0325
 5813WAT     H223959   6.699   2.023   4.691  0.5428  0.5118  0.3906
 5813WAT    EPW23960   6.694   2.057   4.621  0.1973  0.0028  0.1682
 5814WAT      O23961   6.556   4.153   5.371  0.0738  0.3741 -0.1739
 5814WAT     H123962   6.474   4.166   5.344  0.1930  0.6766 -0.3914
 5814WAT     H223963   6.558   4.194   5.449 -0.1935 -0.2733  0.1823
 5814WAT    EPW23964   6.544   4.161   5.379  0.7116 -0.1249  0.2810
 5815WAT      O23965   1.091   5.903   3.882 -0.2541  0.5094 -0.4274
 5815WAT     H123966   1.120   5.915   3.963  0.3073 -1.4206 -0.3029
 5815WAT     H223967   1.013   5.942   3.881  0.2263  1.5211  0.6914
 5815WAT    EPW23968   1.084   5.911   3.894  0.0141  0.1910 -0.0693
 5816WAT      O23969   4.299   1.184   0.769 -0.9900 -0.2417  0.2242
 5816WAT     H123970   4.250   1.256   0.776 -0.6579  0.0278 -0.2005
 5816WAT     H223971   4.379   1.212   0.790 -0.4847 -0.0341 -1.7600
 5816WAT    EPW23972   4.304   1.199   0.773 -0.0663  0.5758  0.0534
 5817WAT      O23973   7.250   1.840   3.651 -0.6142 -0.0958 -0.2741
 5817WAT     H123974   7.336   1.826   3.654 -0.2004  1.9303 -0.8112
 5817WAT     H223975   7.236   1.896   3.716 -1.5836 -0.6034 -0.0330
 5817WAT    EPW23976   7.261   1.846   3.661  0.8243  0.1069 -0.0839
 5818WAT      O23977   5.249   2.827   2.997 -0.2165  0.5608 -0.6257
 5818WAT     H123978   5.314   2.875   2.964 -0.1439 -0.9910 -2.9396
 5818WAT     H223979   5.188   2.886   3.017  1.4146  1.9493  0.5544
 5818WAT    EPW23980   5.250   2.843   2.995  0.3577  0.5869  0.6098
 5819WAT      O23981   3.609   0.891   0.182  0.0164 -0.0835 -0.6178
 5819WAT     H123982   3.608   0.804   0.193 -1.4022  0.0894  1.0384
 5819WAT     H223983   3.545   0.919   0.234  0.9333  2.0390 -0.5321
 5819WAT    EPW23984   3.599   0.882   0.192  0.2010 -0.1108  0.4819
 5820WAT      O23985   0.439   6.852   6.766 -0.1575 -0.3780  0.0097
 5820WAT     H123986   0.473   6.818   6.839 -0.5237 -0.1852  0.2693
 5820WAT     H223987   0.431   6.937   6.784  1.3929 -0.0142 -0.8791
 5820WAT    EPW23988   0.443   6.859   6.779 -0.4535 -0.0164 -0.1301
 5821WAT      O23989   3.504   5.155   6.513 -0.3045 -0.0475 -0.3358
 5821WAT     H123990   3.451   5.145   6.582 -1.4602 -0.6073 -1.2485
 5821WAT     H223991   3.449   5.150   6.445  0.8736 -0.1221 -1.3155
 5821WAT    EPW23992   3.488   5.153   6.513 -0.2591  0.2196  0.2970
 5822WAT      O23993   4.074   7.389   7.000 -0.2540  0.1409 -0.2441
 5822WAT     H123994   4.057   7.462   6.955  1.0302  0.9191  0.4648
 5822WAT     H223995   4.038   7.404   7.078 -2.1974 -1.0734 -0.8582
 5822WAT    EPW23996   4.066   7.402   7.005  0.2868  0.2028 -0.1493
 5823WAT      O23997   4.421   6.445   6.316 -0.7933 -0.5325  0.2008
 5823WAT     H123998   4.450   6.475   6.239  1.5614  0.7389  1.4541
 5823WAT     H223999   4.334   6.452   6.310 -0.6219  0.4648 -1.9583
 5823WAT    EPW24000   4.412   6.450   6.304 -0.3341 -0.3127 -0.4261
 5824WAT      O24001   2.481   0.413   5.175 -0.4879 -0.0921  0.3587
 5824WAT     H124002   2.499   0.370   5.249 -0.6039  0.2699  0.6026
 5824WAT     H224003   2.557   0.447   5.151 -0.6517  0.6788  0.8946
 5824WAT    EPW24004   2.495   0.412   5.182  0.3715  0.0515  0.6878
 5825WAT      O24005   1.550   6.951   0.791 -0.5377  0.0224  0.8464
 5825WAT     H124006   1.539   6.915   0.869 -0.7300 -0.5274  0.5722
 5825WAT     H224007   1.588   6.887   0.744  3.4941  1.5618  1.5612
 5825WAT    EPW24008   1.554   6.936   0.796  0.0859 -0.1045 -0.1651
 5826WAT      O24009   3.692   3.158   5.542 -0.4829  0.9997  0.0722
 5826WAT     H124010   3.700   3.157   5.455 -1.9689 -0.7648 -0.1061
 5826WAT     H224011   3.765   3.198   5.569  2.0524 -1.8708 -1.8303
 5826WAT    EPW24012   3.704   3.163   5.533  0.0083 -0.6811  0.8621
 5827WAT      O24013   3.683   6.622   6.550  0.0089  0.0502 -0.0320
 5827WAT     H124014   3.740   6.587   6.494 -1.9692 -1.3533 -1.2981
 5827WAT     H224015   3.732   6.676   6.598  2.1449 -0.0982 -1.8755
 5827WAT    EPW24016   3.699   6.625   6.549 -0.0867  0.5518 -0.5238
 5828WAT      O24017   5.744   0.299   5.279 -0.3068 -0.2393 -0.1317
 5828WAT     H124018   5.750   0.230   5.332 -0.8361 -0.9969 -1.0351
 5828WAT     H224019   5.784   0.273   5.207  0.8733  0.9719  0.0450
 5828WAT    EPW24020   5.751   0.285   5.277 -0.6603 -0.0178  0.0921
 5829WAT      O24021   3.793   2.206   1.491 -0.1277 -0.2063  0.3397
 5829WAT     H124022   3.764   2.133   1.529 -1.4273 -1.3485 -2.5742
 5829WAT     H224023   3.817   2.179   1.411  2.1986  2.0644  0.1307
 5829WAT    EPW24024   3.793   2.191   1.485 -0.6177 -0.2846  0.3456
 5830WAT      O24025   5.222   0.536   3.468 -0.1052 -0.0982 -0.1276
 5830WAT     H124026   5.277   0.500   3.526 -0.7289  1.0020  1.2170
 5830WAT     H224027   5.174   0.590   3.517 -1.3952  0.0741 -1.5107
 5830WAT    EPW24028   5.223   0.539   3.484  0.6644 -0.3776  0.8117
 5831WAT      O24029   5.907   3.842   1.470  0.0119 -1.2568  0.4580
 5831WAT     H124030   5.851   3.777   1.454  0.2938 -1.7574  1.4298
 5831WAT     H224031   5.855   3.912   1.475 -0.4073 -1.5502  0.3275
 5831WAT    EPW24032   5.891   3.843   1.469  1.0366  1.0325 -0.4460
 5832WAT      O24033   4.165   2.064   3.389  0.1959  0.0240  0.2098
 5832WAT     H124034   4.125   2.041   3.314 -0.3372  0.7430  0.2602
 5832WAT     H224035   4.250   2.060   3.369  0.0584  0.2700 -0.4643
 5832WAT    EPW24036   4.172   2.060   3.375 -0.3085  0.3913  0.3388
 5833WAT      O24037   2.073   0.653   3.680  0.4696  0.2716  0.3816
 5833WAT     H124038   2.080   0.640   3.594 -0.7397 -1.2435  0.4651
 5833WAT     H224039   1.987   0.647   3.695  0.7314 -0.3964  1.8228
 5833WAT    EPW24040   2.061   0.650   3.670 -0.8403  0.1821 -0.5238
 5834WAT      O24041   7.026   3.852   1.027  0.1496 -0.0949 -0.7688
 5834WAT     H124042   7.037   3.939   1.031 -0.2758  0.0910 -2.5370
 5834WAT     H224043   7.104   3.823   1.003  0.1050 -0.1250 -0.8778
 5834WAT    EPW24044   7.039   3.861   1.024  0.0912  0.5172  0.4555
 5835WAT      O24045   5.458   2.963   6.130 -0.3848  0.1975  0.0160
 5835WAT     H124046   5.422   3.038   6.153 -1.4968 -0.5396  0.7675
 5835WAT     H224047   5.390   2.910   6.117  0.3926 -0.9706  0.5306
 5835WAT    EPW24048   5.443   2.966   6.131  0.1606  0.3184  0.5645
 5836WAT      O24049   5.457   7.455   3.005  0.1545 -0.2429  0.0542
 5836WAT     H124050   5.373   7.474   2.990  0.0586 -0.4608  0.3078
 5836WAT     H224051   5.454   7.402   3.075  0.3395 -1.9371 -1.1445
 5836WAT    EPW24052   5.444   7.450   3.013  0.0724  0.5693 -0.5315
 5837WAT      O24053   1.110   0.783   5.058 -0.3473 -0.2976  0.6067
 5837WAT     H124054   1.069   0.758   5.131  1.3489 -0.8277  1.4288
 5837WAT     H224055   1.156   0.712   5.036 -0.1683  0.1494 -0.5106
 5837WAT    EPW24056   1.111   0.769   5.066 -0.3581 -0.2251  0.3308
 5838WAT      O24057   2.653   0.820   6.451  0.0054  0.1877  0.0755
 5838WAT     H124058   2.584   0.842   6.499 -1.2084 -1.7095 -0.6404
 5838WAT     H224059   2.672   0.739   6.479  1.3388  0.3183 -0.3958
 5838WAT    EPW24060   2.645   0.811   6.462 -0.2544 -0.1647  0.3280
 5839WAT      O24061   2.797   4.954   0.028  0.1244  0.0649  0.8478
 5839WAT     H124062   2.757   4.947   0.105  0.9034  1.9796  1.4953
 5839WAT     H224063   2.878   4.927   0.045  0.2915  0.4679  0.6866
 5839WAT    EPW24064   2.803   4.949   0.042  0.1907  0.1598  0.3647
 5840WAT      O24065   6.185   7.180   0.207 -0.6363  0.0594  0.0333
 5840WAT     H124066   6.115   7.171   0.156  0.6550  0.3756 -1.9241
 5840WAT     H224067   6.152   7.186   0.287 -2.8012 -0.2176 -0.7762
 5840WAT    EPW24068   6.170   7.180   0.211  0.2441 -0.8720 -0.0071
 5841WAT      O24069   3.496   4.823   3.535  0.0808 -0.7227  0.1810
 5841WAT     H124070   3.506   4.756   3.590  1.3998  0.3936  1.4106
 5841WAT     H224071   3.568   4.870   3.548 -2.1897  2.6696  1.8815
 5841WAT    EPW24072   3.508   4.820   3.545 -0.4871 -0.2124  0.1185
 5842WAT      O24073   6.856   5.324   3.967 -0.3468 -0.3012 -0.1903
 5842WAT     H124074   6.926   5.363   4.001 -0.0239  0.5091 -1.7208
 5842WAT     H224075   6.858   5.244   4.002  0.6410  0.1112  0.7287
 5842WAT    EPW24076   6.867   5.318   3.977 -0.2891 -0.4402 -0.1599
 5843WAT      O24077   6.583   6.464   1.633  0.4392  0.6437  0.0011
 5843WAT     H124078   6.640   6.524   1.661 -0.0037  1.4155 -0.7128
 5843WAT     H224079   6.623   6.429   1.564 -0.0478  1.3978 -0.6880
 5843WAT    EPW24080   6.597   6.468   1.627  0.1190 -0.5547  0.4050
 5844WAT      O24081   1.329   2.008   2.582 -0.1558  0.2821  0.2324
 5844WAT     H124082   1.363   2.087   2.570  0.1870  0.0868 -0.0960
 5844WAT     H224083   1.323   1.976   2.501 -1.2619  0.3672  0.2603
 5844WAT    EPW24084   1.333   2.015   2.568 -0.1185  0.3963  0.4280
 5845WAT      O24085   6.361   3.316   2.612 -0.0109  0.8731 -0.1926
 5845WAT     H124086   6.410   3.297   2.682 -1.1348  1.4490  0.7724
 5845WAT     H224087   6.377   3.401   2.599  0.1099  0.7919 -0.5733
 5845WAT    EPW24088   6.371   3.326   2.621 -0.4286 -0.1292 -0.3249
 5846WAT      O24089   4.629   5.008   1.312  0.2888  0.5208  0.7098
 5846WAT     H124090   4.683   4.949   1.278  1.3060  2.3438 -1.0303
 5846WAT     H224091   4.624   4.984   1.396  0.9275 -1.7725  0.1764
 5846WAT    EPW24092   4.637   4.996   1.320 -0.4336 -0.5011  1.0359
 5847WAT      O24093   7.657   5.686   3.462 -0.3303  0.1718 -1.0685
 5847WAT     H124094   7.613   5.621   3.500  1.5439 -0.5136  0.0772
 5847WAT     H224095   7.610   5.757   3.481  0.5461 -0.1023  2.7686
 5847WAT    EPW24096   7.644   5.687   3.470  0.7795  0.7079  0.5214
 5848WAT      O24097  -0.005   5.118   4.787  0.2453 -0.1906  0.4245
 5848WAT     H124098  -0.057   5.185   4.769 -0.8271 -1.3645 -1.1041
 5848WAT     H224099   0.073   5.156   4.801 -0.0991  1.3201 -1.3150
 5848WAT    EPW24100  -0.001   5.134   4.786  0.3686 -0.2617  0.3251
 5849WAT      O24101   0.636   3.577   0.540 -0.1758  0.4071  0.0025
 5849WAT     H124102   0.616   3.503   0.582 -0.8527  0.3520 -0.3980
 5849WAT     H224103   0.720   3.567   0.520 -0.1699 -0.0989  0.2601
 5849WAT    EPW24104   0.646   3.565   0.543 -0.2288  1.0478  0.0811
 5850WAT      O24105   4.695   6.706   7.624  0.6722 -0.2670 -0.1803
 5850WAT     H124106   4.713   6.622   7.604 -2.4925 -1.3152  0.7872
 5850WAT     H224107   4.665   6.738   7.548  2.0970  0.1090 -0.6104
 5850WAT    EPW24108   4.693   6.698   7.610 -0.0197  0.3395  0.0918
 5851WAT      O24109   6.614   2.765   6.972  0.4100  0.0679 -0.1100
 5851WAT     H124110   6.534   2.798   6.960  0.3893  0.0018 -0.1534
 5851WAT     H224111   6.660   2.802   6.908 -0.3665 -2.6640 -2.4552
 5851WAT    EPW24112   6.609   2.776   6.961  0.0267  0.8451  0.3160
 5852WAT      O24113   5.680   3.877   3.214 -0.0869  0.2254  0.4663
 5852WAT     H124114   5.633   3.803   3.215 -0.7660  0.5955 -0.8463
 5852WAT     H224115   5.624   3.935   3.179  0.7093  1.1625  0.7195
 5852WAT    EPW24116   5.665   3.874   3.209  0.3402  0.3127 -0.3062
 5853WAT      O24117   5.304   2.036   6.888  0.3604  0.0148  0.3049
 5853WAT     H124118   5.242   2.092   6.913  0.4379 -0.4966  1.7498
 5853WAT     H224119   5.275   1.959   6.917  1.1756 -0.3917  0.0751
 5853WAT    EPW24120   5.290   2.033   6.896  0.3697 -0.1944 -0.0011
 5854WAT      O24121   5.392   0.110   6.544  0.4643  0.5538  0.0073
 5854WAT     H124122   5.455   0.064   6.505  0.4906  1.1078 -0.6121
 5854WAT     H224123   5.349   0.147   6.478 -2.7326 -2.5254  0.0917
 5854WAT    EPW24124   5.395   0.109   6.528 -0.0305 -0.4118 -0.3103
 5855WAT      O24125   7.281   5.274   1.689  0.4199  0.1069 -0.3239
 5855WAT     H124126   7.299   5.348   1.646 -0.2065  0.9608  0.8385
 5855WAT     H224127   7.349   5.265   1.744 -0.7815  1.3230  1.4446
 5855WAT    EPW24128   7.294   5.283   1.691  0.0017 -0.3701 -0.1616
 5856WAT      O24129   2.527   1.501   6.192 -0.8175  0.4262  0.1463
 5856WAT     H124130   2.475   1.570   6.181 -0.4113  0.4550 -1.9938
 5856WAT     H224131   2.597   1.520   6.145 -0.3333 -1.0807  0.2070
 5856WAT    EPW24132   2.530   1.514   6.184  0.4206  0.1078 -0.2267
 5857WAT      O24133   5.940   3.289   6.379  0.3579 -0.0109  0.2189
 5857WAT     H124134   5.937   3.209   6.414 -0.5365 -0.1157 -0.0609
 5857WAT     H224135   5.862   3.297   6.340  2.2071 -1.0327 -4.2538
 5857WAT    EPW24136   5.928   3.278   6.379 -0.1735  0.0302  0.2042
 5858WAT      O24137   3.622   7.086   0.120  0.0298 -0.6997  0.3309
 5858WAT     H124138   3.661   7.164   0.120  0.9254 -1.1318 -0.5537
 5858WAT     H224139   3.539   7.105   0.137  0.2696  0.4280  0.3108
 5858WAT    EPW24140   3.616   7.100   0.123  0.7075  0.6097 -0.4574
 5859WAT      O24141   2.958   0.120   5.039  0.0466 -0.2804  0.4889
 5859WAT     H124142   3.007   0.185   5.073 -0.2117 -1.0351  2.4555
 5859WAT     H224143   3.010   0.050   5.047 -0.4958 -0.6875  0.4627
 5859WAT    EPW24144   2.973   0.119   5.045  0.5261  0.6910  0.4088
 5860WAT      O24145   5.947   6.494   1.262 -0.5236 -0.4383 -0.3095
 5860WAT     H124146   5.928   6.545   1.330 -1.2509  0.2171 -0.9685
 5860WAT     H224147   6.023   6.458   1.283 -1.4649 -1.5229  1.5581
 5860WAT    EPW24148   5.955   6.496   1.275 -0.6158 -0.0065  0.5068
 5861WAT      O24149   4.861   0.857   4.993 -0.6262  0.2336  0.1520
 5861WAT     H124150   4.847   0.942   4.982 -1.7360  0.0232 -0.1908
 5861WAT     H224151   4.847   0.823   4.914  0.0200 -0.2473  0.2369
 5861WAT    EPW24152   4.857   0.864   4.980  0.0217 -0.2459 -0.5460
 5862WAT      O24153   7.076   6.579   0.882  0.1100 -0.1129 -0.1348
 5862WAT     H124154   7.058   6.548   0.803 -1.0402 -0.5922  0.3013
 5862WAT     H224155   7.001   6.615   0.908  0.9018  1.4579  0.1161
 5862WAT    EPW24156   7.063   6.580   0.874 -0.4926  0.4156  0.2622
 5863WAT      O24157   4.665   2.738   4.908  0.0436  0.2402  0.0136
 5863WAT     H124158   4.603   2.678   4.893  1.1466 -1.0208  0.2467
 5863WAT     H224159   4.697   2.715   4.985  0.3963  1.2497  0.1846
 5863WAT    EPW24160   4.660   2.726   4.917 -0.4573  0.0988 -0.5186
 5864WAT      O24161   6.985   6.562   5.642  0.0041 -0.4371  0.2724
 5864WAT     H124162   6.961   6.603   5.716 -0.1620  0.3298 -0.1983
 5864WAT     H224163   7.071   6.553   5.651 -0.0968 -0.9132  0.8335
 5864WAT    EPW24164   6.994   6.567   5.654  0.0083 -0.9354  0.4147
 5865WAT      O24165   2.389   7.536   6.627  0.0781 -0.1631 -0.5800
 5865WAT     H124166   2.329   7.517   6.566  0.0056 -0.1984 -0.4973
 5865WAT     H224167   2.416   7.616   6.605 -0.8511  0.3364  0.0765
 5865WAT    EPW24168   2.384   7.545   6.615 -0.7666  0.0311  0.3271
 5866WAT      O24169   1.946   6.994   3.802 -0.4488 -0.2243  0.3218
 5866WAT     H124170   1.908   6.937   3.856  0.5841  0.0696  1.4127
 5866WAT     H224171   2.001   7.037   3.854  2.6260 -1.7570 -1.3570
 5866WAT    EPW24172   1.949   6.992   3.818  1.0544  0.3165  0.4981
 5867WAT      O24173   4.961   1.095   6.059  0.1940  0.0793 -0.3347
 5867WAT     H124174   4.940   1.164   6.108  0.3236 -0.1887  0.0993
 5867WAT     H224175   4.894   1.088   6.004 -0.3538 -0.1341  0.3574
 5867WAT    EPW24176   4.948   1.104   6.058  0.2258  0.8332 -0.1310
 5868WAT      O24177   2.335   7.107   1.716 -0.3461  0.4391 -0.0151
 5868WAT     H124178   2.342   7.191   1.695 -0.7497  0.7977  1.1715
 5868WAT     H224179   2.398   7.095   1.775 -0.6410  0.0562  0.2306
 5868WAT    EPW24180   2.345   7.117   1.722 -0.1165 -0.0929 -0.3405
 5869WAT      O24181   2.193   2.140   2.327 -0.2149  0.0106  0.0414
 5869WAT     H124182   2.160   2.143   2.408  0.4383 -0.7572  0.3514
 5869WAT     H224183   2.278   2.156   2.339 -0.0740 -0.3172 -0.4626
 5869WAT    EPW24184   2.201   2.143   2.341 -0.3646 -0.3897 -0.0135
 5870WAT      O24185   6.713   4.184   4.968 -0.7571 -0.4883  0.2713
 5870WAT     H124186   6.678   4.107   4.948 -1.3478 -0.4253  1.0077
 5870WAT     H224187   6.774   4.196   4.907 -0.5485 -1.6063  0.2520
 5870WAT    EPW24188   6.717   4.175   4.956  0.1494  0.0574 -0.4151
 5871WAT      O24189   0.386   7.548   3.610  0.6399 -0.1845  1.1820
 5871WAT     H124190   0.432   7.570   3.681  2.5674  2.0286 -0.5816
 5871WAT     H224191   0.441   7.566   3.545 -1.1843 -1.7858 -0.9096
 5871WAT    EPW24192   0.401   7.554   3.611  0.7727  0.1756 -0.5247
 5872WAT      O24193   7.020   3.296   7.093 -0.5500  0.2280  0.0310
 5872WAT     H124194   7.099   3.264   7.113 -0.8853  0.4945  2.0593
 5872WAT     H224195   7.018   3.294   7.006  1.2004 -0.9681 -0.0395
 5872WAT    EPW24196   7.032   3.291   7.083 -0.3342  0.0206  0.1057
 5873WAT      O24197   2.713   1.795   5.365 -0.4130  0.1740  0.3204
 5873WAT     H124198   2.702   1.800   5.278  0.0689  0.9606  0.2910
 5873WAT     H224199   2.649   1.742   5.391 -2.1485  1.8958 -0.2272
 5873WAT    EPW24200   2.702   1.788   5.356 -0.0654  0.6237 -0.1997
 5874WAT      O24201   2.697   5.877   7.301  0.0680 -0.6970 -0.8957
 5874WAT     H124202   2.779   5.879   7.272 -0.2700 -0.0663 -1.8568
 5874WAT     H224203   2.650   5.900   7.231 -0.8928 -0.5662 -0.2287
 5874WAT    EPW24204   2.702   5.881   7.286  0.4661  0.0683  1.1382
 5875WAT      O24205   3.887   6.346   7.187 -0.4866  0.4684  0.7470
 5875WAT     H124206   3.814   6.311   7.219  0.0336  0.1239  1.5937
 5875WAT     H224207   3.885   6.324   7.102 -0.5639 -0.9672  1.0879
 5875WAT    EPW24208   3.876   6.338   7.179 -0.0344 -0.0946 -0.4796
 5876WAT      O24209   6.233   4.662   6.672  0.0861  0.2916  0.1374
 5876WAT     H124210   6.272   4.588   6.694  1.1942  0.3667 -1.4343
 5876WAT     H224211   6.189   4.684   6.744  0.9839 -1.0668  1.1457
 5876WAT    EPW24212   6.232   4.655   6.686  0.0987  0.1365  0.2657
 5877WAT      O24213   4.623   3.606   0.902 -0.7472  0.0353 -0.3065
 5877WAT     H124214   4.676   3.663   0.940 -2.0906  0.4531  1.0505
 5877WAT     H224215   4.584   3.653   0.839 -0.2990  0.0162 -0.6012
 5877WAT    EPW24216   4.625   3.621   0.898  0.0775 -0.0388 -0.4466
 5878WAT      O24217   4.084   6.654   2.378 -0.4442 -0.2742 -0.7063
 5878WAT     H124218   4.092   6.642   2.464  0.8396  2.0925 -0.4122
 5878WAT     H224219   4.111   6.578   2.345  0.9840 -0.5830  0.9876
 5878WAT    EPW24220   4.089   6.641   2.386 -0.5284 -0.0819 -0.1628
 5879WAT      O24221   0.422   2.158   7.541  0.6268  0.2251 -0.1122
 5879WAT     H124222   0.335   2.164   7.544  0.7422  1.9980  2.0930
 5879WAT     H224223   0.436   2.098   7.479 -2.1444 -0.2849 -0.3762
 5879WAT    EPW24224   0.411   2.150   7.532  0.0285  0.1607 -0.0597
 5880WAT      O24225   1.637   6.776   1.634 -0.9203  0.8552 -0.0399
 5880WAT     H124226   1.682   6.718   1.587 -0.8308  0.9339 -0.0525
 5880WAT     H224227   1.554   6.762   1.610 -1.1707 -0.7595  1.5564
 5880WAT    EPW24228   1.631   6.765   1.623  0.5262  0.1412 -0.1031
 5881WAT      O24229   2.232   5.630   1.096 -0.1334 -0.6444  0.4252
 5881WAT     H124230   2.248   5.705   1.138  1.3241 -0.3199 -0.6104
 5881WAT     H224231   2.145   5.625   1.096 -0.2979  1.3169  0.1064
 5881WAT    EPW24232   2.221   5.641   1.102  0.0962 -0.0050  0.0091
 5882WAT      O24233   6.865   5.094   4.113  0.0785  0.1747  0.2222
 5882WAT     H124234   6.856   5.082   4.199  0.4686 -0.0938  0.2295
 5882WAT     H224235   6.925   5.034   4.090  1.4300  1.5126  0.1145
 5882WAT    EPW24236   6.873   5.083   4.123  0.1831  0.0019 -1.0514
 5883WAT      O24237   1.592   4.945   7.140  0.1408  0.1820  0.7728
 5883WAT     H124238   1.546   5.018   7.124  0.4128  0.0937 -0.5671
 5883WAT     H224239   1.638   4.965   7.212 -0.8704  0.7985  1.2759
 5883WAT    EPW24240   1.592   4.959   7.148  0.0725  0.1594  0.4508
 5884WAT      O24241   7.069   6.531   2.304  0.2349  0.3357  0.3409
 5884WAT     H124242   7.042   6.548   2.385  1.4116  1.4707  0.5304
 5884WAT     H224243   7.061   6.444   2.298  2.9620 -0.2546  2.8211
 5884WAT    EPW24244   7.064   6.520   2.315 -0.4636  0.3520  0.3444
 5885WAT      O24245   0.978   1.630   7.362  0.0833  0.2307  0.3044
 5885WAT     H124246   0.981   1.544   7.379 -0.9447  0.2170  0.4985
 5885WAT     H224247   0.947   1.633   7.280  1.3270  0.4033 -0.1905
 5885WAT    EPW24248   0.974   1.618   7.352 -0.8389  0.4677 -0.7521
 5886WAT      O24249   4.514   4.216   1.628  0.0778  0.3432  0.3465
 5886WAT     H124250   4.547   4.137   1.646  0.0474  0.1554 -0.3784
 5886WAT     H224251   4.574   4.270   1.660  0.2829  0.0193  0.5230
 5886WAT    EPW24252   4.528   4.212   1.635 -0.2611 -0.5581  0.4354
 5887WAT      O24253   4.989   0.223   5.628  0.2202 -0.1889 -0.5401
 5887WAT     H124254   5.041   0.281   5.589  0.4831 -0.1571 -0.1426
 5887WAT     H224255   5.006   0.233   5.713  0.3663 -0.9421 -0.4738
 5887WAT    EPW24256   4.999   0.233   5.635  0.1713 -0.4179 -0.3388
 5888WAT      O24257   3.574   5.518   4.828  0.4533 -0.9907  0.3220
 5888WAT     H124258   3.611   5.594   4.845  0.1602 -0.1742 -2.2013
 5888WAT     H224259   3.630   5.459   4.860  2.8773  0.2285 -1.4199
 5888WAT    EPW24260   3.588   5.520   4.835  0.1440  0.2062  0.1590
 5889WAT      O24261   1.796   5.913   0.330 -0.2781  0.1901 -0.1270
 5889WAT     H124262   1.740   5.923   0.263  0.7683 -1.5323 -1.3459
 5889WAT     H224263   1.862   5.869   0.294  0.1657 -1.1180  2.1330
 5889WAT    EPW24264   1.797   5.908   0.315 -0.4246 -0.2479  1.1104
 5890WAT      O24265   3.423   7.454   5.760 -0.2636 -0.0056 -0.0239
 5890WAT     H124266   3.433   7.496   5.684  1.7536 -0.9078 -0.3287
 5890WAT     H224267   3.502   7.419   5.774 -1.3632 -2.2213  1.0746
 5890WAT    EPW24268   3.436   7.455   5.751  0.0005  0.5719  0.2708
 5891WAT      O24269   0.684   7.371   4.425 -0.0136  0.4541  0.0005
 5891WAT     H124270   0.656   7.435   4.373  0.8029  2.0500  1.4111
 5891WAT     H224271   0.770   7.369   4.411  0.7471  2.8319  3.0500
 5891WAT    EPW24272   0.693   7.380   4.416  0.2730 -0.0600  0.3524
 5892WAT      O24273   0.900   7.068   5.473  0.8940  0.3851 -0.2403
 5892WAT     H124274   0.910   7.119   5.403 -0.5227  0.3279 -0.5083
 5892WAT     H224275   0.846   7.005   5.446  2.3759 -1.1360  0.1686
 5892WAT    EPW24276   0.893   7.066   5.459  0.5544  0.4220 -0.2257
 5893WAT      O24277   6.144   4.481   6.232 -0.2618 -0.3540 -0.8638
 5893WAT     H124278   6.171   4.528   6.300 -0.6788 -1.0766 -0.1823
 5893WAT     H224279   6.133   4.541   6.169 -2.5704  0.7869  0.4982
 5893WAT    EPW24280   6.146   4.497   6.233 -0.0447  0.0416  0.2876
 5894WAT      O24281   7.523   5.861   6.942 -0.6414  0.4772 -0.0776
 5894WAT     H124282   7.454   5.882   6.991  0.8399  4.3284  0.7546
 5894WAT     H224283   7.494   5.873   6.861 -1.2853  0.8651  0.1960
 5894WAT    EPW24284   7.508   5.866   6.938 -0.0317  0.1117  0.2709
 5895WAT      O24285   1.605   1.167   6.311  0.1843 -0.2742  0.2093
 5895WAT     H124286   1.540   1.211   6.275  2.0684  1.6009 -1.1513
 5895WAT     H224287   1.589   1.172   6.396 -1.4214  0.1308 -0.0905
 5895WAT    EPW24288   1.593   1.174   6.318 -0.0356 -0.3655  0.3635
 5896WAT      O24289   1.572   0.512   5.102  0.3478 -0.1794  0.1020
 5896WAT     H124290   1.548   0.468   5.173  0.8674 -0.0138  0.3836
 5896WAT     H224291   1.573   0.451   5.039 -0.5670 -0.2369  0.1270
 5896WAT    EPW24292   1.568   0.496   5.103 -0.0634 -0.1877  0.0674
 5897WAT      O24293   3.879   4.026   5.564  0.2606  0.0611 -0.1273
 5897WAT     H124294   3.814   4.077   5.591 -1.4112 -1.2767 -1.3689
 5897WAT     H224295   3.887   4.046   5.480  0.5336 -0.7190 -0.2964
 5897WAT    EPW24296   3.870   4.036   5.556  0.4921 -0.7925 -0.1326
 5898WAT      O24297   4.150   6.474   6.323  0.0879 -0.1666  0.4833
 5898WAT     H124298   4.111   6.505   6.395  1.2745  0.4068  0.9105
 5898WAT     H224299   4.127   6.390   6.321 -1.9308  0.3416  0.1754
 5898WAT    EPW24300   4.141   6.466   6.333 -0.4742  0.0449  0.1970
 5899WAT      O24301   4.704   7.239   1.997 -0.3139  0.2413  0.8505
 5899WAT     H124302   4.724   7.243   2.081  0.8682 -1.6089  0.7329
 5899WAT     H224303   4.619   7.254   1.995 -0.8046 -1.7456  2.6767
 5899WAT    EPW24304   4.695   7.242   2.009 -0.1314  0.0071 -0.3475
 5900WAT      O24305   3.867   0.920   6.520 -0.3931  0.9291  0.3295
 5900WAT     H124306   3.833   0.925   6.440 -1.3554  2.7605  0.8119
 5900WAT     H224307   3.798   0.902   6.570  0.4012 -1.5134  0.6580
 5900WAT    EPW24308   3.852   0.918   6.515  0.0537  0.1105  0.0694
 5901WAT      O24309   1.882   7.078   2.633  0.1306 -0.3605  0.1542
 5901WAT     H124310   1.939   7.027   2.591  1.5512  0.8101  0.5960
 5901WAT     H224311   1.852   7.130   2.571 -1.6418 -1.9139 -0.3886
 5901WAT    EPW24312   1.886   7.078   2.618  0.4740 -0.4190 -0.4594
 5902WAT      O24313   6.910   6.373   3.636 -0.3932 -0.1477  0.1976
 5902WAT     H124314   6.842   6.415   3.671  0.1980  0.8058  0.2335
 5902WAT     H224315   6.901   6.386   3.551  0.7304  1.6036  0.2926
 5902WAT    EPW24316   6.899   6.381   3.629  0.1589  0.0142 -0.4591
 5903WAT      O24317   7.098   4.291   2.869 -0.3153  0.4505 -0.1412
 5903WAT     H124318   7.105   4.227   2.809  1.1142 -0.3094  0.7771
 5903WAT     H224319   7.161   4.272   2.926 -1.4627  1.3185  1.4789
 5903WAT    EPW24320   7.109   4.279   2.868 -0.1532  0.1479  0.2481
 5904WAT      O24321   2.299   5.184   0.934  0.1402  0.0703 -0.2118
 5904WAT     H124322   2.339   5.240   0.988  1.4611 -1.5306  0.5686
 5904WAT     H224323   2.215   5.206   0.940  0.4445  0.9352  1.3258
 5904WAT    EPW24324   2.292   5.195   0.943 -0.2526  0.8805 -0.1006
 5905WAT      O24325   4.091   4.732   2.712  0.1813  0.1781 -0.3923
 5905WAT     H124326   4.040   4.720   2.642  0.6328 -0.0533 -0.6893
 5905WAT     H224327   4.039   4.713   2.779  0.2975 -1.5589 -0.7414
 5905WAT    EPW24328   4.076   4.728   2.711  0.3377 -0.0057  0.5155
 5906WAT      O24329   0.385   4.832   7.173  0.2440  0.5692  0.4715
 5906WAT     H124330   0.468   4.860   7.171  0.1872  0.7336  0.4834
 5906WAT     H224331   0.339   4.903   7.193  0.2795  0.0627  2.5113
 5906WAT    EPW24332   0.391   4.846   7.175 -0.2229  0.1810  0.1682
 5907WAT      O24333   7.191   3.791   3.655 -0.3672 -0.0923  0.2120
 5907WAT     H124334   7.247   3.725   3.668 -0.7429 -0.1871  1.4288
 5907WAT     H224335   7.113   3.754   3.668 -0.6835  0.2272 -0.7022
 5907WAT    EPW24336   7.188   3.775   3.659 -0.6286  0.1491 -0.3536
 5908WAT      O24337   1.549   5.577   4.093 -0.5749  0.4729  0.7679
 5908WAT     H124338   1.500   5.509   4.068  0.3050 -0.8089  2.2955
 5908WAT     H224339   1.497   5.622   4.147  0.2056 -1.6955  3.5880
 5908WAT    EPW24340   1.534   5.573   4.097 -0.4386  0.0535 -0.5822
 5909WAT      O24341   7.020   0.940   2.222  0.1337  0.3446  0.4325
 5909WAT     H124342   6.941   0.977   2.220 -0.0804 -0.1516 -1.5949
 5909WAT     H224343   7.044   0.937   2.139  1.0741 -2.0949  0.7036
 5909WAT    EPW24344   7.012   0.945   2.210 -0.6617  0.4957 -0.1783
 5910WAT      O24345   3.416   6.673   3.237  0.0369 -0.2319 -0.3026
 5910WAT     H124346   3.433   6.645   3.318  0.3328  0.1562 -0.2247
 5910WAT     H224347   3.480   6.637   3.190 -1.0410 -1.7662 -0.6532
 5910WAT    EPW24348   3.428   6.664   3.242  0.3644  0.5568  0.2500
 5911WAT      O24349   3.699   5.522   5.571  0.4218 -0.3206  0.0260
 5911WAT     H124350   3.773   5.478   5.554  0.2853 -0.1880 -0.9654
 5911WAT     H224351   3.711   5.598   5.530 -0.6978 -0.7049 -1.0710
 5911WAT    EPW24352   3.712   5.526   5.563 -0.4758  0.0782 -0.1905
 5912WAT      O24353   5.417   4.067   6.609 -0.3332 -0.4108  0.3033
 5912WAT     H124354   5.455   4.075   6.530 -0.7145 -1.4258 -0.0107
 5912WAT     H224355   5.474   4.104   6.663  0.7759 -1.2210 -0.2512
 5912WAT    EPW24356   5.431   4.073   6.605 -0.1819 -0.3753 -0.1639
 5913WAT      O24357   6.470   5.070   5.791  0.5813  0.1016 -0.4134
 5913WAT     H124358   6.405   5.127   5.777 -0.9416 -1.3478  0.4233
 5913WAT     H224359   6.518   5.076   5.719 -2.0504 -0.7660 -2.3914
 5913WAT    EPW24360   6.467   5.080   5.778 -0.5052  0.1813  0.2130
 5914WAT      O24361   3.170   6.426   1.598 -0.4046  0.4671 -0.3696
 5914WAT     H124362   3.210   6.497   1.630 -0.4248  0.7869 -1.0261
 5914WAT     H224363   3.236   6.375   1.574 -0.3803 -0.0266  0.6774
 5914WAT    EPW24364   3.186   6.429   1.599  0.0280 -0.1212 -0.5826
 5915WAT      O24365   0.723   5.399   4.919 -0.0280  0.0756  0.2147
 5915WAT     H124366   0.775   5.393   4.849 -2.9321  0.4066 -2.1757
 5915WAT     H224367   0.749   5.474   4.956  1.6322 -0.1283 -0.4141
 5915WAT    EPW24368   0.735   5.409   4.914  0.0586  0.2641 -0.5584
 5916WAT      O24369   0.573   2.196   7.084  0.1439  0.2680  0.6411
 5916WAT     H124370   0.608   2.275   7.072 -0.3164  0.5632  1.1798
 5916WAT     H224371   0.540   2.176   7.006  0.9025  0.2886  0.3128
 5916WAT    EPW24372   0.573   2.205   7.071  0.2378  0.6286  0.3383
 5917WAT      O24373   1.695   7.418   1.958 -0.0133 -0.3018 -0.5878
 5917WAT     H124374   1.687   7.479   1.896  0.6031  0.4593  0.0569
 5917WAT     H224375   1.760   7.367   1.929  0.4145  0.1752 -0.4795
 5917WAT    EPW24376   1.704   7.419   1.945  0.5077 -0.2183 -0.5478
 5918WAT      O24377   4.923   2.416   2.292 -0.4151  0.0605 -0.5956
 5918WAT     H124378   4.870   2.398   2.359 -0.6613 -0.5179 -0.9369
 5918WAT     H224379   4.869   2.448   2.231 -0.2492  0.2335 -0.6538
 5918WAT    EPW24380   4.907   2.418   2.293  0.3284  0.1229 -0.0002
 5919WAT      O24381   7.315   4.741   4.771  0.1410  0.5647 -0.1165
 5919WAT     H124382   7.231   4.761   4.777  0.1991  0.4748  1.6101
 5919WAT     H224383   7.315   4.663   4.731 -0.9657 -1.2989  3.1139
 5919WAT    EPW24384   7.303   4.732   4.766 -0.0761 -0.7294 -0.2093
 5920WAT      O24385   3.921   4.356   5.696  0.2015 -0.5132  0.0133
 5920WAT     H124386   3.854   4.301   5.685  0.6996 -1.1394  0.0772
 5920WAT     H224387   3.957   4.360   5.616 -1.7502  2.3091 -0.8886
 5920WAT    EPW24388   3.916   4.349   5.682  0.5772 -0.0979  0.4063
 5921WAT      O24389   2.153   3.232   7.032 -0.6440 -0.2812 -0.1753
 5921WAT     H124390   2.236   3.206   7.023 -0.6507  0.0138 -1.1844
 5921WAT     H224391   2.108   3.157   7.033 -0.3020 -0.5102  1.4750
 5921WAT    EPW24392   2.159   3.217   7.031 -0.4219 -0.1159  0.5224
 5922WAT      O24393   7.288   5.818   2.641  0.5011 -0.0850  0.3673
 5922WAT     H124394   7.260   5.827   2.559 -2.4057  1.4647  1.3964
 5922WAT     H224395   7.268   5.735   2.661  0.4023 -0.2056 -0.2279
 5922WAT    EPW24396   7.281   5.807   2.632 -0.1227  0.4928 -0.0377
 5923WAT      O24397   1.256   5.203   1.844 -0.0782  0.1210  0.3392
 5923WAT     H124398   1.283   5.192   1.761 -2.4743 -1.2075 -0.3506
 5923WAT     H224399   1.312   5.262   1.876  3.0741 -1.8005 -1.1374
 5923WAT    EPW24400   1.268   5.210   1.836  0.1666 -0.3749 -0.3988
 5924WAT      O24401   3.121   6.371   1.177  0.0272 -0.1041 -0.3662
 5924WAT     H124402   3.137   6.452   1.206 -0.3963 -0.8494  2.2323
 5924WAT     H224403   3.077   6.334   1.243  3.0594 -3.4913  0.0925
 5924WAT    EPW24404   3.117   6.378   1.191  0.4151  0.1499 -0.0080
 5925WAT      O24405   0.421   6.754   2.124  0.2925 -0.1424  0.6707
 5925WAT     H124406   0.485   6.696   2.138  0.6500 -0.1006 -0.6273
 5925WAT     H224407   0.352   6.704   2.107  0.0318 -0.1852  1.7878
 5925WAT    EPW24408   0.420   6.738   2.124 -0.4966 -0.1489  0.4741
 5926WAT      O24409   4.001   0.137   0.982  0.4700 -0.0749 -0.3986
 5926WAT     H124410   4.004   0.224   0.969  0.1819  0.5252  2.6904
 5926WAT     H224411   4.084   0.116   0.997  0.4777 -0.2670 -0.7046
 5926WAT    EPW24412   4.013   0.147   0.982 -0.3550  0.1077 -0.5781
 5927WAT      O24413   6.629   3.505   4.228 -0.4404 -0.1201  0.2913
 5927WAT     H124414   6.576   3.435   4.233  0.1969 -0.5261  3.0490
 5927WAT     H224415   6.591   3.555   4.167 -2.1340 -1.8671 -0.1994
 5927WAT    EPW24416   6.615   3.502   4.220 -0.3053  0.0641  0.5529
 5928WAT      O24417   4.371   5.088   5.126  0.2143 -0.2764  0.2400
 5928WAT     H124418   4.452   5.100   5.156 -0.0594  0.2144  0.8049
 5928WAT     H224419   4.365   5.144   5.059 -0.0365  0.5618  0.9393
 5928WAT    EPW24420   4.382   5.098   5.121  0.5089 -0.3290  0.1307
 5929WAT      O24421   2.898   2.868   0.218  0.5132  0.8893 -0.2209
 5929WAT     H124422   2.835   2.917   0.182 -0.5862  0.1449  0.6117
 5929WAT     H224423   2.891   2.886   0.303 -0.3030 -1.0756  0.1815
 5929WAT    EPW24424   2.888   2.878   0.226  0.4668 -0.1450  0.1757
 5930WAT      O24425   2.324   3.603   0.908  0.1674  0.1482  0.0819
 5930WAT     H124426   2.366   3.659   0.959  0.7683 -1.4340  1.4198
 5930WAT     H224427   2.386   3.547   0.883 -0.3375  0.2590 -1.5302
 5930WAT    EPW24428   2.339   3.603   0.912  0.7991  0.0578  0.3867
 5931WAT      O24429   1.423   4.361   1.642  0.2822 -0.4444 -0.2755
 5931WAT     H124430   1.367   4.339   1.578  1.2921 -1.1594 -0.9542
 5931WAT     H224431   1.483   4.298   1.639  0.9363  0.1043  0.6714
 5931WAT    EPW24432   1.423   4.349   1.632  0.4368  0.1653 -0.0600
 5932WAT      O24433   4.865   7.430   1.087 -0.2664  0.3464 -0.3011
 5932WAT     H124434   4.821   7.423   1.011  1.2787 -2.2549 -1.0726
 5932WAT     H224435   4.933   7.377   1.076  0.1799  0.1024  2.8243
 5932WAT    EPW24436   4.868   7.421   1.074 -0.6349  0.1036 -0.6128
 5933WAT      O24437   0.303   2.086   1.300  0.7185 -0.1565 -0.0547
 5933WAT     H124438   0.272   2.127   1.230  0.5761  2.0005  1.1486
 5933WAT     H224439   0.232   2.071   1.349  0.9442 -0.4070  0.2034
 5933WAT    EPW24440   0.288   2.090   1.297 -0.8690 -0.1513 -0.1618
 5934WAT      O24441   2.112   1.093   5.505  0.4222  0.6889 -0.3442
 5934WAT     H124442   2.116   1.117   5.589  0.8514  1.5606 -0.6013
 5934WAT     H224443   2.075   1.015   5.508 -0.9397  1.3239  0.5612
 5934WAT    EPW24444   2.107   1.085   5.518 -0.0668  0.4123 -0.1477
 5935WAT      O24445   0.409   1.429   1.987  0.2856 -0.7647 -0.1770
 5935WAT     H124446   0.437   1.469   2.059  1.0481 -2.3255  0.4620
 5935WAT     H224447   0.480   1.388   1.958 -0.0424 -0.2583 -1.7756
 5935WAT    EPW24448   0.424   1.429   1.994 -0.4040  0.2076  0.3179
 5936WAT      O24449   4.254   1.454   5.094  0.2858 -0.0959  0.3960
 5936WAT     H124450   4.240   1.414   5.018  0.6017  0.2245  0.1637
 5936WAT     H224451   4.279   1.389   5.146 -0.0979 -0.3453  0.2735
 5936WAT    EPW24452   4.256   1.438   5.090  0.0183 -0.3813  0.1241
 5937WAT      O24453   4.281   2.233   4.588 -0.4498 -0.6428 -0.4122
 5937WAT     H124454   4.326   2.180   4.535  1.9531 -0.3331  1.1267
 5937WAT     H224455   4.283   2.310   4.547  4.0573  0.3855  1.1762
 5937WAT    EPW24456   4.288   2.236   4.574 -0.0189 -0.3237 -0.1923
 5938WAT      O24457   3.097   1.247   0.878 -0.3555  0.6521 -0.5289
 5938WAT     H124458   3.110   1.243   0.964 -0.9154 -0.1477 -0.4741
 5938WAT     H224459   3.156   1.305   0.851  0.4951  0.1625  0.2538
 5938WAT    EPW24460   3.107   1.255   0.887  0.4971 -0.0050 -0.2174
 5939WAT      O24461   2.477   6.832   2.524 -0.1916  0.0744  0.2205
 5939WAT     H124462   2.495   6.837   2.438 -0.3284 -2.0632  0.0192
 5939WAT     H224463   2.541   6.782   2.555 -0.5362  0.2589  1.2682
 5939WAT    EPW24464   2.489   6.826   2.516 -0.4107 -0.4929 -0.4863
 5940WAT      O24465   0.298   0.827   1.271 -0.0441  0.7354  0.3084
 5940WAT     H124466   0.376   0.802   1.301  0.4929  1.6195 -0.3211
 5940WAT     H224467   0.243   0.773   1.312  0.8757  0.1861  0.8691
 5940WAT    EPW24468   0.302   0.815   1.282  0.2041  0.0120 -0.1898
 5941WAT      O24469   5.413   4.800   4.945  0.4539  0.7492 -0.5688
 5941WAT     H124470   5.385   4.882   4.937 -1.5464  0.1971  0.0579
 5941WAT     H224471   5.366   4.756   4.886  1.1905 -0.0326 -0.6064
 5941WAT    EPW24472   5.402   4.805   4.935  0.2005  0.3956  0.3469
 5942WAT      O24473   6.386   7.364   3.550 -0.1845  0.3388 -0.1571
 5942WAT     H124474   6.466   7.357   3.517 -0.3177  0.2582 -0.4768
 5942WAT     H224475   6.399   7.386   3.633  0.1737  0.0747 -0.1409
 5942WAT    EPW24476   6.399   7.366   3.557  0.2678  0.3539  0.7300
 5943WAT      O24477   1.704   1.820   0.987 -0.6794 -0.0161 -0.1479
 5943WAT     H124478   1.667   1.871   1.048  0.8026 -1.0901  1.7552
 5943WAT     H224479   1.718   1.875   0.920 -0.8892  1.6293  1.0924
 5943WAT    EPW24480   1.701   1.836   0.986  0.9543  0.2888  0.0528
 5944WAT      O24481   4.507   4.151   0.539  0.0217  0.2238 -0.3040
 5944WAT     H124482   4.477   4.178   0.462  2.3512  0.0446 -1.3632
 5944WAT     H224483   4.588   4.123   0.521  0.6646  0.1997  2.2225
 5944WAT    EPW24484   4.515   4.151   0.525 -0.3022 -0.1233  0.2152
 5945WAT      O24485   0.300   6.248   5.756 -0.2960  0.4268  0.1701
 5945WAT     H124486   0.364   6.227   5.812 -1.5109 -3.1173  0.4375
 5945WAT     H224487   0.343   6.272   5.684  1.4444 -1.7660  0.3647
 5945WAT    EPW24488   0.316   6.249   5.754 -0.1768  0.3030 -0.8942
 5946WAT      O24489   6.449   1.784   4.132  0.3090  0.0135 -0.1792
 5946WAT     H124490   6.362   1.784   4.127  0.1603  1.9305  1.1472
 5946WAT     H224491   6.473   1.717   4.082 -1.8376  0.6757 -2.2996
 5946WAT    EPW24492   6.440   1.774   4.123 -0.2637  0.6014 -0.3086
 5947WAT      O24493   7.006   0.302   4.978 -0.5384 -0.0223  0.1326
 5947WAT     H124494   7.019   0.227   5.022 -0.6081  0.3874  0.8791
 5947WAT     H224495   7.059   0.358   5.019 -0.5554  0.3562 -0.3661
 5947WAT    EPW24496   7.016   0.299   4.991  0.2254 -0.0027  0.3984
 5948WAT      O24497   4.188   0.487   2.195  0.5493  0.5218 -0.1532
 5948WAT     H124498   4.268   0.517   2.216  1.4345 -1.3522 -0.5881
 5948WAT     H224499   4.199   0.453   2.116  0.2307 -2.6298  0.9872
 5948WAT    EPW24500   4.202   0.486   2.187 -0.4385  0.1488 -0.1784
 5949WAT      O24501   0.184   1.679   3.765 -0.0743 -0.0397  0.1697
 5949WAT     H124502   0.152   1.760   3.766  0.6080  0.2391 -0.3032
 5949WAT     H224503   0.167   1.650   3.845  0.7952  1.0180  0.7633
 5949WAT    EPW24504   0.176   1.686   3.777  0.4608 -1.0834 -0.2964
 5950WAT      O24505   2.296   6.634   0.662  0.3307 -0.1767  0.1439
 5950WAT     H124506   2.314   6.648   0.746  1.0672 -0.9788  0.1324
 5950WAT     H224507   2.298   6.548   0.654 -2.2274 -0.2929 -0.1932
 5950WAT    EPW24508   2.299   6.624   0.673 -0.2816 -0.5777 -0.0052
 5951WAT      O24509   5.797   6.236   5.934  0.0085  0.0200  0.6131
 5951WAT     H124510   5.802   6.197   6.012  1.0036  0.7971  0.9728
 5951WAT     H224511   5.816   6.172   5.878 -0.1242 -0.4149  1.0599
 5951WAT    EPW24512   5.801   6.221   5.937  0.1438 -0.0040  0.2431
 5952WAT      O24513   2.830   6.170   3.386  0.4625 -0.1602  0.3432
 5952WAT     H124514   2.821   6.213   3.310  1.1753  0.5298  0.6374
 5952WAT     H224515   2.798   6.226   3.445  2.4964  0.5409  0.8773
 5952WAT    EPW24516   2.824   6.185   3.383 -0.1048 -0.0122  0.3728
 5953WAT      O24517   0.100   2.998   1.374  0.1745  0.0109 -0.5586
 5953WAT     H124518   0.182   2.972   1.388  0.3095  1.4002  1.9524
 5953WAT     H224519   0.106   3.086   1.375 -1.1705  0.1427 -1.6287
 5953WAT    EPW24520   0.113   3.007   1.376  0.1021 -1.0289 -0.2516
 5954WAT      O24521   2.897   1.102   6.701 -0.9497 -0.0386  0.3495
 5954WAT     H124522   2.882   1.155   6.634  1.0592 -0.0055 -0.1243
 5954WAT     H224523   2.940   1.152   6.758 -1.4650 -0.4280  1.1055
 5954WAT    EPW24524   2.901   1.117   6.700 -0.6847 -0.3630  0.9113
 5955WAT      O24525   2.460   5.917   4.456 -0.5688  1.1504  0.2467
 5955WAT     H124526   2.449   5.896   4.371 -0.6186  0.6978  0.3605
 5955WAT     H224527   2.428   5.847   4.498  0.8973  0.6732  0.6153
 5955WAT    EPW24528   2.453   5.903   4.449  0.6667 -0.2786 -0.6917
 5956WAT      O24529   6.444   6.537   3.569  1.0254  0.2641  0.8765
 5956WAT     H124530   6.397   6.464   3.577 -0.7825  1.3577  0.7017
 5956WAT     H224531   6.393   6.599   3.604  2.0316  1.6356  0.0474
 5956WAT    EPW24532   6.430   6.536   3.576 -0.5507 -0.3799  0.3304
 5957WAT      O24533   6.109   5.525   5.184 -0.5064  0.1122 -0.1954
 5957WAT     H124534   6.108   5.440   5.167  0.4590 -0.5047  2.2845
 5957WAT     H224535   6.063   5.531   5.259 -0.1490  1.6927 -0.0705
 5957WAT    EPW24536   6.102   5.514   5.193  0.5126  0.4475  0.8094
 5958WAT      O24537   2.492   6.181   1.716 -0.3752 -0.0786 -0.6144
 5958WAT     H124538   2.522   6.107   1.681 -1.6493  0.0434 -2.0710
 5958WAT     H224539   2.532   6.243   1.671  0.8363  0.1644  0.7365
 5958WAT    EPW24540   2.502   6.179   1.705 -0.0608 -0.2578 -0.0816
 5959WAT      O24541   5.342   5.229   2.689  0.4091  0.3803  0.1648
 5959WAT     H124542   5.316   5.272   2.618  3.1259  1.3931 -0.3427
 5959WAT     H224543   5.362   5.150   2.659 -1.6836 -0.3738  0.5417
 5959WAT    EPW24544   5.341   5.224   2.674 -0.6008  0.1047 -0.4990
 5960WAT      O24545   6.937   2.795   3.558 -0.6935  1.1288  0.1122
 5960WAT     H124546   6.985   2.849   3.605  1.6624  0.7269 -1.6465
 5960WAT     H224547   6.922   2.728   3.612 -1.2230  2.2140  1.3787
 5960WAT    EPW24548   6.942   2.793   3.573  0.4606 -0.1698 -0.3743
 5961WAT      O24549   4.301   0.917   2.307  0.4061  0.6864  0.1211
 5961WAT     H124550   4.247   0.856   2.340 -0.7076  0.9581 -1.1132
 5961WAT     H224551   4.376   0.874   2.297  0.6289  0.4309  2.3460
 5961WAT    EPW24552   4.304   0.902   2.310  0.0845  0.1920 -0.2536
 5962WAT      O24553   4.510   1.984   3.511  0.2498  0.0397 -0.3642
 5962WAT     H124554   4.461   2.054   3.531 -0.5592 -0.6379  0.0585
 5962WAT     H224555   4.584   2.020   3.482 -0.2405  1.0835 -0.3959
 5962WAT    EPW24556   4.514   2.000   3.510 -0.7588  0.0640  0.1500
 5963WAT      O24557   1.793   3.910   1.918 -0.6295  0.2840  0.0003
 5963WAT     H124558   1.813   3.959   1.987  1.7233 -0.8255  0.2096
 5963WAT     H224559   1.752   3.841   1.953 -3.6995  1.8320 -0.2696
 5963WAT    EPW24560   1.790   3.907   1.933  0.0383  0.0453 -0.1911
 5964WAT      O24561   2.097   7.199   5.663  0.3966  0.0035  0.1476
 5964WAT     H124562   2.118   7.198   5.579 -3.0852  0.9801 -0.9205
 5964WAT     H224563   2.117   7.280   5.688 -0.5748  0.4260 -0.4019
 5964WAT    EPW24564   2.103   7.211   5.654  0.1749  0.3145 -0.1273
 5965WAT      O24565   4.840   1.038   4.572  0.0439  0.1088  0.0332
 5965WAT     H124566   4.912   1.086   4.567 -0.3050  0.4932 -2.8602
 5965WAT     H224567   4.870   0.956   4.579  0.7995  0.2669 -1.0738
 5965WAT    EPW24568   4.855   1.033   4.572 -0.3408  0.5983  0.2599
 5966WAT      O24569   6.994   0.674   0.004  0.5016 -0.0984  0.5176
 5966WAT     H124570   6.979   0.743  -0.047  2.3920 -0.8623 -1.2105
 5966WAT     H224571   6.967   0.700   0.083  1.1835  2.6405 -0.0565
 5966WAT    EPW24572   6.988   0.688   0.008  0.8059  0.1714 -0.4356
 5967WAT      O24573   4.644   0.726   7.016 -0.1629 -0.4720  0.0656
 5967WAT     H124574   4.588   0.738   6.951  0.2133  2.3787  0.1277
 5967WAT     H224575   4.593   0.706   7.084 -0.8195 -0.6723 -0.4757
 5967WAT    EPW24576   4.628   0.725   7.017 -0.1394  0.2643  0.0671
 5968WAT      O24577   3.973   2.149   0.399  0.0547  0.1634  0.3329
 5968WAT     H124578   3.920   2.089   0.433 -0.3840 -0.2674 -1.0132
 5968WAT     H224579   3.919   2.216   0.381  0.2467  0.3302  0.3779
 5968WAT    EPW24580   3.957   2.150   0.401  0.3963 -0.5326 -0.3171
 5969WAT      O24581   6.444   1.918   1.849 -0.0206  0.3788  0.2367
 5969WAT     H124582   6.506   1.979   1.844  1.3448 -1.0778 -1.8601
 5969WAT     H224583   6.388   1.941   1.786 -0.4849  0.4941  0.6880
 5969WAT    EPW24584   6.445   1.931   1.839  0.5143  0.4111  0.1925
 5970WAT      O24585   1.071   4.526   5.265 -0.1381 -0.3495  0.1550
 5970WAT     H124586   1.087   4.579   5.332  2.5666 -1.3737  0.4409
 5970WAT     H224587   1.128   4.552   5.204 -1.5303 -0.3928 -1.2350
 5970WAT    EPW24588   1.082   4.538   5.266 -0.0746 -0.8909  0.3984
 5971WAT      O24589   3.582   5.886   1.535 -0.3116  0.0534 -0.2563
 5971WAT     H124590   3.559   5.886   1.619 -0.9574  0.6921 -0.4268
 5971WAT     H224591   3.532   5.948   1.500  0.9501  0.7787 -0.8415
 5971WAT    EPW24592   3.572   5.895   1.543  0.2491  0.4075  0.5750
 5972WAT      O24593   4.954   0.176   2.397 -0.4393 -0.0737  0.2901
 5972WAT     H124594   4.921   0.150   2.474 -2.0777 -0.2396 -0.4318
 5972WAT     H224595   5.004   0.244   2.418 -1.4318  0.3371  1.4358
 5972WAT    EPW24596   4.956   0.182   2.412  0.5871 -0.2572 -0.1404
 5973WAT      O24597   2.288   5.534   6.079 -0.0306 -0.0163  0.0242
 5973WAT     H124598   2.310   5.577   6.152  0.3298  3.5255 -1.9245
 5973WAT     H224599   2.201   5.530   6.083 -0.1457  1.6448  0.0047
 5973WAT    EPW24600   2.278   5.540   6.090  0.0583 -0.1516 -0.1652
 5974WAT      O24601   5.676   5.815   6.874 -0.0896 -0.0268 -0.0771
 5974WAT     H124602   5.685   5.734   6.904  0.9262  0.1352  0.1190
 5974WAT     H224603   5.727   5.862   6.927  0.7324  0.4599 -1.2312
 5974WAT    EPW24604   5.685   5.810   6.886 -0.1531 -0.0834  0.5276
 5975WAT      O24605   0.582   2.649   0.842 -0.2240  0.1400 -0.4379
 5975WAT     H124606   0.586   2.735   0.855 -0.1720  0.2768 -1.2717
 5975WAT     H224607   0.550   2.618   0.917 -0.6268  0.9290 -0.2704
 5975WAT    EPW24608   0.578   2.657   0.855 -0.0453 -0.0536  0.8160
 5976WAT      O24609   2.310   6.944   6.545  0.0597  0.2565  0.0094
 5976WAT     H124610   2.263   6.999   6.495  0.0577  1.1277  0.9363
 5976WAT     H224611   2.392   6.971   6.532  0.0030  0.9887  1.0255
 5976WAT    EPW24612   2.315   6.956   6.536 -0.2540 -0.5162 -0.2884
 5977WAT      O24613   5.948   2.847   1.040 -0.3814 -0.5570  0.1221
 5977WAT     H124614   5.915   2.909   0.988  2.4573 -1.3132 -2.8988
 5977WAT     H224615   5.993   2.893   1.100  0.4193  0.3956 -1.1600
 5977WAT    EPW24616   5.950   2.863   1.041 -0.1150  0.3158 -0.1744
 5978WAT      O24617   0.666   0.944   4.086 -0.2684  0.0224  0.4349
 5978WAT     H124618   0.648   0.962   4.170 -1.0048  0.3540  0.2085
 5978WAT     H224619   0.633   1.012   4.043 -1.1360 -0.8238 -0.2534
 5978WAT    EPW24620   0.659   0.957   4.092 -0.0720  0.8846 -0.4132
 5979WAT      O24621   2.036   5.938   2.204  0.2837 -0.2116  0.3343
 5979WAT     H124622   2.118   5.913   2.217  0.2355 -0.0494  0.9709
 5979WAT     H224623   2.025   6.005   2.259  0.2532  0.9025 -0.9774
 5979WAT    EPW24624   2.046   5.944   2.214 -0.2907  0.3068  0.3323
 5980WAT      O24625   6.300   0.180   5.695  0.0031  0.3043  0.6615
 5980WAT     H124626   6.280   0.184   5.780 -0.2725  0.8375  0.5758
 5980WAT     H224627   6.318   0.263   5.673  1.4650 -0.0289  0.5176
 5980WAT    EPW24628   6.299   0.193   5.704  0.0415 -0.3061  0.2666
 5981WAT      O24629   0.477   1.622   4.922  1.2197  0.2746  0.2108
 5981WAT     H124630   0.523   1.621   4.997  1.2049 -1.5630  0.2286
 5981WAT     H224631   0.537   1.642   4.862  0.9463  3.3614  0.8163
 5981WAT    EPW24632   0.493   1.625   4.924 -0.1254  0.5764  0.5371
 5982WAT      O24633   5.546   4.324   6.104  0.3445 -0.2376  0.0158
 5982WAT     H124634   5.487   4.263   6.125  0.8228 -0.2508  1.3578
 5982WAT     H224635   5.605   4.319   6.167  0.5977  1.3559 -0.0540
 5982WAT    EPW24636   5.546   4.314   6.116 -0.2726  0.1264 -0.1388
 5983WAT      O24637   6.888   6.095   3.750 -0.0758  0.1396  0.1205
 5983WAT     H124638   6.873   6.172   3.713  0.9497 -0.6399 -2.1395
 5983WAT     H224639   6.961   6.067   3.710  1.3761 -0.6915  3.0522
 5983WAT    EPW24640   6.897   6.102   3.738  0.1538  0.2037 -0.5852
 5984WAT      O24641   4.944   3.381   4.722 -0.9728 -0.3867  0.1615
 5984WAT     H124642   4.902   3.409   4.793 -1.0871  1.6355 -0.6281
 5984WAT     H224643   5.022   3.420   4.728 -1.2784  0.5001 -1.2021
 5984WAT    EPW24644   4.950   3.391   4.733  0.1546  0.4438  0.5870
 5985WAT      O24645   3.023   6.076   1.433 -0.4246 -0.5343 -0.2362
 5985WAT     H124646   3.019   6.163   1.425  0.8839 -0.4168  0.0841
 5985WAT     H224647   2.983   6.047   1.361 -0.1035  0.3539 -0.7989
 5985WAT    EPW24648   3.017   6.085   1.421  0.0417 -0.2558 -0.3106
 5986WAT      O24649   3.520   4.847   3.253 -0.1793  0.4833 -0.4236
 5986WAT     H124650   3.603   4.866   3.237  0.1894 -0.1230  0.6830
 5986WAT     H224651   3.517   4.838   3.340 -1.7979  2.2927 -0.2325
 5986WAT    EPW24652   3.532   4.849   3.263  0.1747 -0.3384 -0.2872
 5987WAT      O24653   7.355   0.273   1.994  0.2786  0.4841  0.2278
 5987WAT     H124654   7.366   0.202   2.043  0.2870  0.1942 -0.1819
 5987WAT     H224655   7.289   0.315   2.032 -1.1361 -0.7825 -0.6820
 5987WAT    EPW24656   7.347   0.269   2.007  0.8343 -0.4839 -0.5318
 5988WAT      O24657   6.143   0.317   0.420 -0.0595 -0.1431  0.7297
 5988WAT     H124658   6.074   0.362   0.391 -2.0917 -2.1896  2.0225
 5988WAT     H224659   6.122   0.299   0.503  2.2185 -0.5778  1.2707
 5988WAT    EPW24660   6.130   0.321   0.428 -0.0148  0.7786 -0.4050
 5989WAT      O24661   4.175   6.536   1.151 -0.3147  0.1190  0.2059
 5989WAT     H124662   4.242   6.520   1.097  0.0520  0.9305  0.4012
 5989WAT     H224663   4.111   6.485   1.120 -0.6768  1.8356 -2.1081
 5989WAT    EPW24664   4.176   6.526   1.138 -1.2184 -1.4056 -0.5503
 5990WAT      O24665   4.176   0.746   3.483  0.3111 -0.4260  0.2219
 5990WAT     H124666   4.127   0.690   3.528 -0.9188  0.0591 -0.4731
 5990WAT     H224667   4.140   0.823   3.500  0.2069 -0.1698 -1.1062
 5990WAT    EPW24668   4.164   0.749   3.492  0.6588  0.1990 -0.2263
 5991WAT      O24669   6.697   5.430   0.915 -0.1166 -0.0336 -0.1733
 5991WAT     H124670   6.662   5.443   0.837  2.0442 -1.0637 -1.3977
 5991WAT     H224671   6.643   5.473   0.969 -3.5722 -1.9420 -1.7339
 5991WAT    EPW24672   6.684   5.438   0.912  0.2510 -0.5673  0.0492
 5992WAT      O24673   6.769   3.060   5.871  0.0898 -0.0591  0.5734
 5992WAT     H124674   6.819   2.993   5.844 -1.2183 -0.9646  0.3424
 5992WAT     H224675   6.793   3.125   5.818  1.5654 -0.2372  0.9671
 5992WAT    EPW24676   6.780   3.060   5.859  0.3098  0.4640  0.3595
 5993WAT      O24677   5.589   5.329   6.997  0.3563 -0.1413  0.2978
 5993WAT     H124678   5.610   5.245   7.005 -0.3625 -0.3353  0.2997
 5993WAT     H224679   5.518   5.337   7.048  0.9051  0.6695  0.9688
 5993WAT    EPW24680   5.581   5.318   7.006  0.8917  0.8655  0.1965
 5994WAT      O24681   5.346   4.486   5.290 -0.0389  0.5257 -0.0211
 5994WAT     H124682   5.404   4.445   5.240 -0.5398 -0.6859  0.3522
 5994WAT     H224683   5.358   4.452   5.369 -1.3406  0.1018  0.0318
 5994WAT    EPW24684   5.356   4.475   5.294  0.0531  0.1506  0.0430
 5995WAT      O24685   1.876   0.949   3.578  0.3873  0.2162  0.3849
 5995WAT     H124686   1.792   0.969   3.593  0.2560 -1.0757  1.5486
 5995WAT     H224687   1.914   0.960   3.655  1.3332  0.8654 -0.1560
 5995WAT    EPW24688   1.869   0.954   3.592  0.3226  0.2239  0.5141
 5996WAT      O24689   3.866   0.450   1.990 -0.5713  0.5205 -0.6228
 5996WAT     H124690   3.922   0.487   1.935 -0.7255 -1.1300 -1.9746
 5996WAT     H224691   3.797   0.430   1.940  0.1811 -3.1396 -0.5269
 5996WAT    EPW24692   3.864   0.452   1.975 -0.2462  0.4917 -0.1026
 5997WAT      O24693   4.116   7.530   5.915 -0.0378 -0.0587  0.2303
 5997WAT     H124694   4.137   7.614   5.903 -0.5578 -0.2086 -2.5406
 5997WAT     H224695   4.190   7.488   5.901  0.3443 -0.1032  2.1345
 5997WAT    EPW24696   4.130   7.536   5.911 -0.8104 -0.1820 -0.2270
 5998WAT      O24697   4.241   7.250   0.567  0.1132 -0.5774  0.1902
 5998WAT     H124698   4.285   7.289   0.503  0.6244  2.4208  2.1519
 5998WAT     H224699   4.160   7.284   0.559 -0.6737 -2.4795 -0.5717
 5998WAT    EPW24700   4.235   7.261   0.556  0.0143  0.0925  0.3153
 5999WAT      O24701   5.727   5.559   1.138 -0.2044  0.6041 -0.0041
 5999WAT     H124702   5.811   5.553   1.162 -0.7362  1.5481  2.4330
 5999WAT     H224703   5.721   5.506   1.069  1.9399 -1.0698  0.9849
 5999WAT    EPW24704   5.738   5.550   1.131  0.6516 -0.6802  0.6355
 6000WAT      O24705   6.922   1.426   0.740 -0.0292  0.0333  0.0580
 6000WAT     H124706   6.851   1.386   0.709  1.6103 -1.0255 -2.6745
 6000WAT     H224707   6.892   1.470   0.809 -3.3045 -0.4210 -0.9063
 6000WAT    EPW24708   6.907   1.427   0.746  0.1264  0.6648 -0.9482
 6001WAT      O24709   6.414   5.904   2.492  0.3867 -0.1239  0.4351
 6001WAT     H124710   6.459   5.836   2.525 -0.9586  0.1474  3.0291
 6001WAT     H224711   6.363   5.867   2.432  0.9418 -1.1050  0.5397
 6001WAT    EPW24712   6.413   5.888   2.488  0.2297  0.4041  0.1278
 6002WAT      O24713   4.701   4.156   0.212 -0.2701 -0.1346 -0.1289
 6002WAT     H124714   4.714   4.122   0.292 -0.5888 -1.4928 -0.6288
 6002WAT     H224715   4.637   4.214   0.225 -0.6922 -0.7338  0.5038
 6002WAT    EPW24716   4.694   4.160   0.226 -0.3263  0.5582  0.5592
 6003WAT      O24717   1.039   7.369   0.591  0.0764  0.0054 -0.1517
 6003WAT     H124718   1.122   7.355   0.614 -0.2347  0.3644  1.2484
 6003WAT     H224719   1.016   7.295   0.551  1.4660  0.4094 -1.7896
 6003WAT    EPW24720   1.048   7.356   0.588  0.2140  0.5600 -0.2480
 6004WAT      O24721   6.681   5.234   0.441  0.6052 -0.0311 -0.5404
 6004WAT     H124722   6.749   5.234   0.496  1.2735 -1.8382 -1.2964
 6004WAT     H224723   6.692   5.308   0.396  2.7772 -0.7797 -1.4044
 6004WAT    EPW24724   6.693   5.245   0.443  0.7712  0.1615 -0.3266
 6005WAT      O24725   5.691   2.293   4.904 -0.4177  0.2595 -0.2362
 6005WAT     H124726   5.629   2.353   4.890  1.1747  2.0019 -0.2262
 6005WAT     H224727   5.760   2.341   4.927  0.8396 -1.6341  0.0814
 6005WAT    EPW24728   5.692   2.309   4.905 -0.2084 -0.0513 -0.4426
 6006WAT      O24729   5.116   0.410   5.444  0.0666 -0.1925 -0.1462
 6006WAT     H124730   5.193   0.451   5.448 -0.0930  0.1606 -0.5488
 6006WAT     H224731   5.126   0.355   5.377 -0.0300 -0.1514 -0.1938
 6006WAT    EPW24732   5.129   0.408   5.434  0.4655  0.3369  1.1251
 6007WAT      O24733   0.283   4.858   6.765 -0.1606 -0.1605 -0.4356
 6007WAT     H124734   0.315   4.937   6.747  0.7349 -0.2916  0.4925
 6007WAT     H224735   0.253   4.830   6.688 -0.7128  1.1726 -0.7318
 6007WAT    EPW24736   0.283   4.866   6.751 -0.0118 -0.0048 -0.0256
 6008WAT      O24737   5.087   7.094   7.480  0.1963  0.8094  0.2409
 6008WAT     H124738   5.001   7.094   7.494  0.2616 -0.7191  0.7568
 6008WAT     H224739   5.096   7.050   7.406  0.6508 -0.8731  1.2501
 6008WAT    EPW24740   5.076   7.088   7.471  0.0230 -0.2518  0.0373
 6009WAT      O24741   3.476   5.415   1.962  0.3962  0.1331 -0.0122
 6009WAT     H124742   3.562   5.415   1.973  0.4808  0.4358 -0.6429
 6009WAT     H224743   3.462   5.354   1.902 -0.1024 -1.7694  1.9226
 6009WAT    EPW24744   3.486   5.406   1.955  0.9614 -0.5647  0.4516
 6010WAT      O24745   4.300   6.825   1.711  0.3818 -0.4431 -0.2290
 6010WAT     H124746   4.265   6.746   1.705  2.0602 -1.2481 -0.0430
 6010WAT     H224747   4.335   6.825   1.791 -3.3205  2.1672  1.6850
 6010WAT    EPW24748   4.300   6.813   1.722 -0.4711  0.7432  0.2045
 6011WAT      O24749   5.510   3.973   0.845 -0.2906 -0.0706  0.1406
 6011WAT     H124750   5.525   3.908   0.789  1.2767 -0.6611  1.1713
 6011WAT     H224751   5.588   4.009   0.856 -1.0325  1.6621  0.0337
 6011WAT    EPW24752   5.523   3.969   0.839 -0.3017  0.0547 -0.0809
 6012WAT      O24753   6.772   0.904   7.209  0.2267  0.4176 -0.1358
 6012WAT     H124754   6.788   0.964   7.148  0.4318 -0.1526 -0.6546
 6012WAT     H224755   6.826   0.839   7.188 -2.1821 -1.2839 -1.4788
 6012WAT    EPW24756   6.782   0.903   7.197 -0.2031 -0.3635 -0.4075
 6013WAT      O24757   6.511   3.021   6.166  0.3967  0.2520 -0.0777
 6013WAT     H124758   6.576   2.966   6.186  0.7073  0.9710  0.9898
 6013WAT     H224759   6.552   3.098   6.158 -0.4339  0.9165  1.6885
 6013WAT    EPW24760   6.527   3.024   6.168 -0.1677 -0.4466  0.6385
 6014WAT      O24761   6.112   3.714   7.439 -0.5456 -0.2896  0.2178
 6014WAT     H124762   6.127   3.696   7.523 -1.9799  0.9119  0.7737
 6014WAT     H224763   6.025   3.709   7.432 -0.4465 -0.3911 -1.1970
 6014WAT    EPW24764   6.102   3.711   7.450 -0.5242 -0.0531  0.3905
 6015WAT      O24765   7.044   7.413   3.032  0.1783 -0.6374 -0.4460
 6015WAT     H124766   6.973   7.396   3.079 -0.1378  1.3714 -0.1261
 6015WAT     H224767   7.013   7.446   2.958  0.7684 -0.5590 -0.6629
 6015WAT    EPW24768   7.029   7.415   3.028 -0.1713 -0.1620 -0.4970
 6016WAT      O24769   6.431   2.852   5.232  0.1375 -0.2700  0.2776
 6016WAT     H124770   6.465   2.889   5.304  0.4140  1.8410 -0.8619
 6016WAT     H224771   6.368   2.907   5.208 -0.0008 -0.9759 -1.0625
 6016WAT    EPW24772   6.427   2.866   5.239  0.1534  0.2995 -0.4164
 6017WAT      O24773   2.147   5.788   5.868  0.6021 -0.2393  0.2577
 6017WAT     H124774   2.116   5.730   5.926  0.0778  1.0031  1.2499
 6017WAT     H224775   2.078   5.808   5.820  0.5525  0.2639  0.5308
 6017WAT    EPW24776   2.133   5.782   5.870 -0.2518  0.2106  0.4381
 6018WAT      O24777   0.513   1.681   1.736 -0.0709  0.6224  0.1902
 6018WAT     H124778   0.500   1.598   1.712  3.4762 -0.1120  0.2781
 6018WAT     H224779   0.532   1.721   1.661  2.3400  0.3078  0.5517
 6018WAT    EPW24780   0.514   1.674   1.721  0.1347  0.0629  0.1451
 6019WAT      O24781   0.352   6.025   1.903 -0.6309 -0.4140  0.0568
 6019WAT     H124782   0.331   5.940   1.904 -0.4291 -0.5544 -2.2031
 6019WAT     H224783   0.439   6.025   1.896 -0.7411 -0.1539 -2.1735
 6019WAT    EPW24784   0.361   6.013   1.902  0.0442 -0.4221 -0.1297
 6020WAT      O24785   1.332   5.190   1.574  0.1191  0.0287 -0.0211
 6020WAT     H124786   1.291   5.120   1.543  0.1618  0.0594 -0.1467
 6020WAT     H224787   1.297   5.256   1.529 -0.5925  0.1942  0.7392
 6020WAT    EPW24788   1.321   5.189   1.563  0.7239  0.0809  0.4595
 6021WAT      O24789   1.063   7.512   1.161  0.0418  0.2435  0.2448
 6021WAT     H124790   1.045   7.477   1.083  0.4151 -1.2426  0.7883
 6021WAT     H224791   1.147   7.536   1.154 -0.1547  0.8608 -0.0606
 6021WAT    EPW24792   1.073   7.510   1.149  0.8080 -0.0153 -0.2352
 6022WAT      O24793   7.528   1.066   6.654  0.4243  0.1740  0.0126
 6022WAT     H124794   7.570   1.100   6.722  1.1279  0.0709 -0.3625
 6022WAT     H224795   7.554   0.983   6.652  1.9368  0.6276 -1.5036
 6022WAT    EPW24796   7.538   1.059   6.664  0.4948  0.0802  0.5772
 6023WAT      O24797   0.399   3.610   0.416  0.1127  0.2305  0.0490
 6023WAT     H124798   0.467   3.592   0.467  0.1583  1.5812  0.4872
 6023WAT     H224799   0.421   3.575   0.339  1.6328  1.2511 -0.0256
 6023WAT    EPW24800   0.412   3.602   0.412 -0.5290 -0.2938  0.5401
 6024WAT      O24801   7.626   5.001   6.458 -0.4720  0.0285 -0.2743
 6024WAT     H124802   7.665   5.044   6.393  1.0156  0.0299  0.5905
 6024WAT     H224803   7.564   4.955   6.417  1.1801 -0.8985 -1.8816
 6024WAT    EPW24804   7.623   5.001   6.442  0.4041 -0.1662 -0.0906
 6025WAT      O24805   4.269   1.432   3.637 -0.0018 -0.1160 -0.3199
 6025WAT     H124806   4.308   1.439   3.559  2.8249 -1.5921  0.8243
 6025WAT     H224807   4.245   1.348   3.641 -1.4891  0.2768 -0.1076
 6025WAT    EPW24808   4.271   1.421   3.626  0.0217 -0.0957 -0.6619
 6026WAT      O24809   4.261   3.899   6.018 -0.1580 -0.6534 -0.2035
 6026WAT     H124810   4.324   3.843   5.995  0.3224 -0.1487 -0.1473
 6026WAT     H224811   4.208   3.899   5.949 -0.5934 -1.7609  0.1042
 6026WAT    EPW24812   4.262   3.891   6.004  0.0505  0.0206  0.3796
 6027WAT      O24813   5.548   2.955   5.588 -0.2176  0.0403 -0.1136
 6027WAT     H124814   5.516   2.906   5.523 -0.1174 -0.4994  0.2352
 6027WAT     H224815   5.502   3.029   5.583  0.1251  0.2046 -1.1083
 6027WAT    EPW24816   5.536   2.959   5.578 -0.1698 -0.3885  0.2582
 6028WAT      O24817   3.644   6.743   6.238  0.8569  0.0322 -0.2675
 6028WAT     H124818   3.642   6.676   6.182  1.1706 -1.7843  1.7779
 6028WAT     H224819   3.572   6.731   6.287  1.4124  0.6130  0.7258
 6028WAT    EPW24820   3.633   6.731   6.237 -0.0068 -0.1353  0.5971
 6029WAT      O24821   1.786   6.623   4.572  0.1536  0.5053  0.6962
 6029WAT     H124822   1.728   6.580   4.523  2.1388 -1.0041 -0.5043
 6029WAT     H224823   1.759   6.706   4.569 -1.0570  0.0911 -1.0823
 6029WAT    EPW24824   1.773   6.629   4.565  0.0125 -0.1467  0.2834
 6030WAT      O24825   4.496   0.061   3.982 -0.1046  0.1212 -0.1920
 6030WAT     H124826   4.418   0.045   4.019  0.0133 -1.1646 -0.4763
 6030WAT     H224827   4.509   0.145   4.001 -1.4955  0.3335 -0.0099
 6030WAT    EPW24828   4.486   0.071   3.990  0.0066  0.5035  0.1071
 6031WAT      O24829   6.996   7.244   1.714 -0.0227 -1.0359  0.1263
 6031WAT     H124830   7.019   7.177   1.664 -2.3502 -2.1675  0.4833
 6031WAT     H224831   6.916   7.265   1.687 -0.5118 -0.2994  1.9491
 6031WAT    EPW24832   6.988   7.237   1.703 -0.5234 -0.0103  0.0484
 6032WAT      O24833   2.188   5.093   6.802  0.0333 -0.2289  0.0652
 6032WAT     H124834   2.156   5.025   6.757 -1.3588  0.4914 -0.0821
 6032WAT     H224835   2.266   5.107   6.765 -0.3021 -0.8203 -0.9000
 6032WAT    EPW24836   2.194   5.085   6.790 -0.1105  0.3700 -0.4916
 6033WAT      O24837   2.220   6.018   3.568  0.0441 -0.3274  0.4107
 6033WAT     H124838   2.230   6.058   3.645 -0.4076 -1.5892  1.1688
 6033WAT     H224839   2.153   6.061   3.531 -0.3448 -0.2826  1.1417
 6033WAT    EPW24840   2.211   6.030   3.574  0.4721  0.5392 -0.1863
 6034WAT      O24841   3.699   0.119   0.710 -0.1373  0.0644  0.2474
 6034WAT     H124842   3.677   0.084   0.786 -0.2205 -0.1196  0.1405
 6034WAT     H224843   3.778   0.085   0.694  0.5980  1.3615  1.0227
 6034WAT    EPW24844   3.707   0.109   0.719 -0.3192 -0.7248  0.2699
 6035WAT      O24845   5.217   3.545   2.757 -0.4119  0.1039  0.3617
 6035WAT     H124846   5.281   3.503   2.714 -0.8499  0.3980 -0.6025
 6035WAT     H224847   5.247   3.626   2.764  0.4983 -0.3263  2.3540
 6035WAT    EPW24848   5.231   3.550   2.752 -0.3615 -0.7695  0.3163
 6036WAT      O24849   6.577   4.605   0.458 -0.2341 -0.1820  0.6182
 6036WAT     H124850   6.621   4.680   0.457  1.2213 -1.0050  0.7530
 6036WAT     H224851   6.581   4.578   0.375 -1.1694  0.1067  0.4683
 6036WAT    EPW24852   6.584   4.612   0.445  0.4468  0.2690 -0.2230
 6037WAT      O24853   6.814   7.036   1.231  0.1269 -0.0534 -0.4486
 6037WAT     H124854   6.774   6.967   1.197  1.9339 -2.3412  1.7198
 6037WAT     H224855   6.752   7.098   1.231 -1.8658 -1.9207 -1.6147
 6037WAT    EPW24856   6.799   7.035   1.226  0.1192  0.1159  0.2683
 6038WAT      O24857   2.218   2.353   3.646  0.3183  0.3711  0.1988
 6038WAT     H124858   2.179   2.347   3.568  0.0374 -2.2086  0.4520
 6038WAT     H224859   2.299   2.381   3.626 -0.5580  2.4869 -0.6580
 6038WAT    EPW24860   2.224   2.356   3.631 -0.1901  0.0666 -0.0684
 6039WAT      O24861   2.723   7.588   4.627  0.5438  0.0632  0.2163
 6039WAT     H124862   2.689   7.649   4.679 -0.0928  0.6993 -0.9045
 6039WAT     H224863   2.666   7.522   4.633  0.4552  0.1478  0.3133
 6039WAT    EPW24864   2.709   7.587   4.636 -0.4341 -0.4820  0.5713
 6040WAT      O24865   1.682   1.317   6.827 -0.7376 -0.1939 -0.2157
 6040WAT     H124866   1.714   1.380   6.776 -0.4569 -0.4695 -0.3848
 6040WAT     H224867   1.751   1.267   6.844 -0.6763  0.2676  1.0057
 6040WAT    EPW24868   1.697   1.319   6.822 -0.0147  0.6094 -0.3197
 6041WAT      O24869   1.830   7.143   0.168  0.3263 -0.4648  0.9567
 6041WAT     H124870   1.779   7.193   0.219  1.1838  2.7341 -1.0282
 6041WAT     H224871   1.910   7.176   0.180  0.9007 -1.1577 -0.7487
 6041WAT    EPW24872   1.834   7.155   0.178 -0.1454  0.0977  0.0907
 6042WAT      O24873   7.079   0.716   3.556 -0.0547 -0.7817 -0.1375
 6042WAT     H124874   7.114   0.655   3.504 -0.2669  0.1874 -1.4671
 6042WAT     H224875   7.001   0.684   3.577  0.4295 -1.6295  0.4248
 6042WAT    EPW24876   7.073   0.703   3.552 -0.2861 -0.4919  0.1172
 6043WAT      O24877   5.577   5.333   6.275 -0.4736 -0.0908 -0.5091
 6043WAT     H124878   5.528   5.266   6.249  0.3320 -0.4654 -1.1170
 6043WAT     H224879   5.523   5.402   6.268 -1.7163 -0.7968  1.3503
 6043WAT    EPW24880   5.562   5.333   6.270 -0.7909  0.0198  0.4095
 6044WAT      O24881   4.252   3.403   0.623  0.1564  0.2112  0.4435
 6044WAT     H124882   4.206   3.440   0.560  0.8982 -0.1354 -0.3179
 6044WAT     H224883   4.333   3.400   0.591  1.0890  2.2152  2.3139
 6044WAT    EPW24884   4.257   3.408   0.609  0.5707 -0.0039  0.0179
 6045WAT      O24885   1.413   5.542   2.497  0.2875 -0.8055  0.1274
 6045WAT     H124886   1.417   5.571   2.414 -0.6987 -0.1251  0.2950
 6045WAT     H224887   1.353   5.594   2.533  1.4251 -0.4096  1.5558
 6045WAT    EPW24888   1.405   5.554   2.490  0.2960  0.4499  0.0686
 6046WAT      O24889   1.527   6.746   7.388 -0.3153 -0.4803 -0.2279
 6046WAT     H124890   1.482   6.804   7.435 -1.8878 -1.8213  0.0009
 6046WAT     H224891   1.470   6.721   7.327 -0.2537 -2.8848  0.5954
 6046WAT    EPW24892   1.512   6.751   7.386  0.2504 -0.1496 -0.1215
 6047WAT      O24893   4.306   4.339   2.171  0.3161 -0.1240 -0.0824
 6047WAT     H124894   4.367   4.305   2.120  1.1307  1.1986 -0.0454
 6047WAT     H224895   4.240   4.356   2.116  0.6090 -0.0888 -0.4287
 6047WAT    EPW24896   4.305   4.337   2.155  0.0695 -0.0043 -0.0648
 6048WAT      O24897   3.081   0.955   5.870 -0.1281 -0.4179 -0.2428
 6048WAT     H124898   3.015   0.965   5.925 -1.6323  1.3744 -2.2162
 6048WAT     H224899   3.052   0.898   5.812  0.2478 -0.0229 -0.8352
 6048WAT    EPW24900   3.067   0.948   5.869 -0.3281  0.2381  0.3580
 6049WAT      O24901   4.886   0.832   1.841  0.1386  0.4562 -0.1378
 6049WAT     H124902   4.958   0.865   1.805  0.2807  2.4227  1.7722
 6049WAT     H224903   4.910   0.751   1.864  1.3473  0.6632 -0.6010
 6049WAT    EPW24904   4.900   0.825   1.839  0.0900 -0.1903  0.0152
 6050WAT      O24905   1.224   3.254   3.040  0.0658 -0.3567  0.5986
 6050WAT     H124906   1.296   3.285   3.078  0.0030 -0.4801  0.8189
 6050WAT     H224907   1.167   3.249   3.106 -0.4618  0.7062  0.2425
 6050WAT    EPW24908   1.226   3.258   3.055 -0.2342 -0.1887  0.0776
 6051WAT      O24909   5.355   3.521   0.419 -0.4134 -0.8206  0.0888
 6051WAT     H124910   5.345   3.521   0.505 -0.9436 -2.5343  0.0719
 6051WAT     H224911   5.319   3.596   0.393  0.1763 -0.0647  1.3725
 6051WAT    EPW24912   5.348   3.532   0.428  0.3690  0.3130  0.5613
 6052WAT      O24913   1.562   7.426   0.118  0.5818 -0.3081  0.3632
 6052WAT     H124914   1.476   7.428   0.129  0.3994 -0.5346 -0.8262
 6052WAT     H224915   1.578   7.499   0.072  1.1702  0.2540  1.4385
 6052WAT    EPW24916   1.552   7.437   0.113  0.2241  0.5386  0.0641
 6053WAT      O24917   2.840   2.043   5.407 -0.4507 -0.2662 -0.0035
 6053WAT     H124918   2.875   2.085   5.340 -0.5983  0.8198  0.5849
 6053WAT     H224919   2.805   1.972   5.371 -1.7458  0.9808 -1.3020
 6053WAT    EPW24920   2.840   2.039   5.392  0.0265  0.7438  0.6656
 6054WAT      O24921   6.657   1.367   4.915 -1.0461 -0.0998  0.2019
 6054WAT     H124922   6.651   1.407   4.838 -1.7368  0.0551  0.3254
 6054WAT     H224923   6.655   1.433   4.972  0.7120 -0.1126  0.3386
 6054WAT    EPW24924   6.656   1.383   4.912  0.0274 -0.6705  0.0764
 6055WAT      O24925   0.863   4.716   2.145  0.4265  0.0437 -0.6344
 6055WAT     H124926   0.921   4.771   2.178 -1.2880  1.0801  0.8267
 6055WAT     H224927   0.843   4.663   2.212  0.0068 -0.5784 -1.2268
 6055WAT    EPW24928   0.869   4.716   2.159 -0.3288  0.5595  0.0861
 6056WAT      O24929   2.699   7.582   6.725  0.1864  0.1140 -0.7152
 6056WAT     H124930   2.651   7.654   6.719 -0.9150 -0.5226  0.0991
 6056WAT     H224931   2.646   7.519   6.696  1.9148 -0.1477 -3.7615
 6056WAT    EPW24932   2.684   7.583   6.720  0.1379 -0.2458 -0.4140
 6057WAT      O24933   1.963   6.051   6.944 -0.1633  0.3937 -0.2374
 6057WAT     H124934   1.977   5.972   6.911 -0.2030  0.0423  0.5707
 6057WAT     H224935   1.981   6.042   7.029 -0.0239  1.2884 -0.1596
 6057WAT    EPW24936   1.967   6.038   6.952 -0.0230  0.0386  0.1441
 6058WAT      O24937   3.388   0.960   0.328 -0.0546  0.1729  0.2389
 6058WAT     H124938   3.390   1.045   0.309 -2.4000  0.0349 -0.8992
 6058WAT     H224939   3.408   0.958   0.413 -0.0639  1.8745  0.3081
 6058WAT    EPW24940   3.391   0.972   0.338 -0.2183 -0.6213 -0.4828
 6059WAT      O24941   5.361   4.994   6.752 -0.1749 -0.1330  0.1138
 6059WAT     H124942   5.383   5.078   6.760 -0.4938  0.0920 -1.1303
 6059WAT     H224943   5.306   4.981   6.818  0.0312  0.5740  0.4396
 6059WAT    EPW24944   5.356   5.005   6.763  0.0216 -0.0089 -0.4518
 6060WAT      O24945   1.588   4.913   0.886  0.3051 -0.1048 -0.1240
 6060WAT     H124946   1.651   4.883   0.834  0.8897 -0.5281  0.8143
 6060WAT     H224947   1.632   4.945   0.955 -0.5121 -0.7145  0.6970
 6060WAT    EPW24948   1.604   4.913   0.888 -0.6179 -0.2822 -0.1254
 6061WAT      O24949   6.725   6.235   4.863  0.4747 -0.1902 -0.1916
 6061WAT     H124950   6.774   6.177   4.907  1.6881  1.1881  0.3422
 6061WAT     H224951   6.665   6.185   4.824  0.5470 -1.6674  1.4585
 6061WAT    EPW24952   6.723   6.219   4.864  0.1297 -0.3201 -0.1828
 6062WAT      O24953   5.392   1.846   1.561  0.1143  0.1631 -0.4994
 6062WAT     H124954   5.451   1.786   1.536  0.5037 -0.9392  2.6043
 6062WAT     H224955   5.320   1.799   1.575 -0.0649  0.6796  0.3511
 6062WAT    EPW24956   5.390   1.830   1.560 -0.1534 -0.2381  0.2507
 6063WAT      O24957   1.818   7.571   4.647  0.2026  0.1834 -0.6316
 6063WAT     H124958   1.873   7.632   4.617  0.2111  0.0045 -0.9865
 6063WAT     H224959   1.866   7.524   4.702  1.0575 -1.3425 -2.5692
 6063WAT    EPW24960   1.833   7.573   4.651  0.1682 -0.0806  0.0853
 6064WAT      O24961   7.428   4.493   2.655  0.0229  0.1429  0.0021
 6064WAT     H124962   7.406   4.411   2.634  0.9322  0.3075 -1.7694
 6064WAT     H224963   7.515   4.493   2.651  0.0275  1.2715 -0.3221
 6064WAT    EPW24964   7.438   4.481   2.652 -0.0438  0.3790 -0.2362
 6065WAT      O24965   5.203   3.577   1.223  0.3586 -0.1037 -0.5656
 6065WAT     H124966   5.144   3.515   1.241  0.1154  0.1351 -0.5209
 6065WAT     H224967   5.264   3.565   1.284  0.8528 -0.9802 -1.2163
 6065WAT    EPW24968   5.203   3.566   1.235 -0.8122  0.4567  0.1369
 6066WAT      O24969   1.544   3.964   5.172 -0.0516  0.1556  0.3279
 6066WAT     H124970   1.618   4.007   5.188 -0.4613  0.5710  1.1752
 6066WAT     H224971   1.509   4.009   5.106  1.2901 -1.1218 -1.3319
 6066WAT    EPW24972   1.550   3.977   5.165 -0.2759 -0.1087 -0.0888
 6067WAT      O24973   7.159   5.220   5.995  0.1359 -1.1022 -0.0716
 6067WAT     H124974   7.242   5.244   5.981  0.5429 -1.5510  1.3926
 6067WAT     H224975   7.164   5.134   6.007 -0.3485 -0.9852  1.1452
 6067WAT    EPW24976   7.172   5.211   5.995  0.0371 -0.2446  0.2030
 6068WAT      O24977   6.916   5.649   6.557 -0.1861  0.1417 -0.4931
 6068WAT     H124978   6.928   5.644   6.471  1.6012  1.9913 -0.4328
 6068WAT     H224979   6.983   5.605   6.590  1.0111  2.1444 -0.1024
 6068WAT    EPW24980   6.927   5.642   6.549 -0.3465  0.7015 -0.1562
 6069WAT      O24981   3.730   1.481   0.723  0.2863 -0.0189 -0.0394
 6069WAT     H124982   3.776   1.505   0.653  1.2723  0.1285  0.6398
 6069WAT     H224983   3.754   1.539   0.784 -1.5981  0.7131  0.0636
 6069WAT    EPW24984   3.740   1.493   0.721 -0.1874  0.0781 -0.4786
 6070WAT      O24985   4.360   2.306   0.141  0.0590 -0.2483  0.2777
 6070WAT     H124986   4.285   2.342   0.165  0.0876  0.2653 -0.3871
 6070WAT     H224987   4.355   2.303   0.054 -1.0212 -4.1272  0.2656
 6070WAT    EPW24988   4.348   2.311   0.131 -0.3534  0.1481  0.3311
 6071WAT      O24989   3.165   6.263   5.972 -0.0317  0.2164  0.5077
 6071WAT     H124990   3.078   6.265   5.971 -0.0270  0.8378  0.0009
 6071WAT     H224991   3.184   6.183   5.999 -0.7396  0.6936  2.5985
 6071WAT    EPW24992   3.155   6.252   5.976  0.4602  0.0002 -0.2143
 6072WAT      O24993   1.554   3.223   4.922 -0.1402  0.1565 -0.0889
 6072WAT     H124994   1.525   3.257   4.847 -1.9068 -2.2621 -0.6345
 6072WAT     H224995   1.629   3.266   4.936 -0.7287  2.0849 -2.1554
 6072WAT    EPW24996   1.561   3.234   4.913  0.2923  0.0468 -0.4597
 6073WAT      O24997   3.335   0.281   5.684 -0.2469  0.2899  0.4671
 6073WAT     H124998   3.248   0.288   5.685 -0.5915 -2.2236  3.0593
 6073WAT     H224999   3.349   0.199   5.656  0.9790 -0.4029  2.7736
 6073WAT    EPW25000   3.324   0.270   5.680  0.2593  0.1430  0.3599
 6074WAT      O25001   0.584   4.357   5.956  0.0254 -0.1932  0.1245
 6074WAT     H125002   0.604   4.430   6.000  0.5440 -0.9172  1.1417
 6074WAT     H225003   0.633   4.361   5.885 -2.5767  2.1981 -1.7287
 6074WAT    EPW25004   0.594   4.368   5.952 -0.2726 -0.3180  0.2006
 6075WAT      O25005   3.960   6.755   6.810 -0.0062 -0.0324  0.1833
 6075WAT     H125006   3.995   6.710   6.876 -0.2715  0.4826  0.6774
 6075WAT     H225007   3.910   6.815   6.849  0.0453  0.4529 -0.4750
 6075WAT    EPW25008   3.958   6.757   6.826  0.3951  0.0474 -0.0310
 6076WAT      O25009   2.868   1.031   3.597 -0.3607  0.2060  0.0639
 6076WAT     H125010   2.948   1.006   3.623 -0.4328  1.1882  1.3550
 6076WAT     H225011   2.816   1.000   3.660 -1.0078 -0.4023 -0.7516
 6076WAT    EPW25012   2.872   1.023   3.610 -0.3852  0.0308  0.1079
 6077WAT      O25013   4.634   0.803   2.395 -0.3846 -0.3589  0.1351
 6077WAT     H125014   4.666   0.877   2.361  0.3578 -0.1857  1.1512
 6077WAT     H225015   4.696   0.744   2.378 -1.2242 -0.9098 -1.1716
 6077WAT    EPW25016   4.648   0.805   2.387 -0.1017 -0.1759 -0.9715
 6078WAT      O25017   1.315   7.334   5.121  0.1884  0.2746 -0.4732
 6078WAT     H125018   1.275   7.397   5.075 -0.4100 -0.3488 -0.8266
 6078WAT     H225019   1.250   7.280   5.142  0.2398  1.0799  2.0737
 6078WAT    EPW25020   1.300   7.335   5.117 -0.0062  0.0314  0.3141
 6079WAT      O25021   2.795   3.661   1.499  0.3817  0.3690  0.2732
 6079WAT     H125022   2.760   3.697   1.427 -2.6741  0.6129  1.6965
 6079WAT     H225023   2.820   3.582   1.473 -1.9242 -0.0701 -0.8305
 6079WAT    EPW25024   2.793   3.655   1.484 -0.6385 -0.0303 -0.1932
 6080WAT      O25025   2.232   4.975   3.466 -0.2751 -0.3904 -0.4176
 6080WAT     H125026   2.311   5.014   3.465  0.2832 -1.4608  0.0786
 6080WAT     H225027   2.208   4.976   3.382  0.8754 -1.2150 -0.7875
 6080WAT    EPW25028   2.240   4.981   3.454  0.3067 -0.5836  0.4677
 6081WAT      O25029   3.613   6.269   3.284  0.3048 -0.4459  0.2814
 6081WAT     H125030   3.605   6.188   3.254 -0.0426  0.2362 -1.5752
 6081WAT     H225031   3.697   6.274   3.308  0.6047 -1.0364 -0.6093
 6081WAT    EPW25032   3.624   6.258   3.283  0.3649  0.1237 -0.3662
 6082WAT      O25033   4.574   7.238   1.408  0.1061  0.2037 -0.2771
 6082WAT     H125034   4.513   7.274   1.458  0.8155 -0.4033  1.0790
 6082WAT     H225035   4.632   7.303   1.397  1.1585 -0.3026  1.7898
 6082WAT    EPW25036   4.574   7.253   1.414  0.0358 -0.5229  0.0394
 6083WAT      O25037   4.311   6.867   4.018 -0.2410  0.1178  0.5810
 6083WAT     H125038   4.368   6.903   4.074  0.8200 -1.5319  0.6188
 6083WAT     H225039   4.234   6.898   4.046  0.4712  1.2005  1.4785
 6083WAT    EPW25040   4.308   6.877   4.031  0.7991 -0.0568 -0.2010
 6084WAT      O25041   6.358   5.530   1.368  0.0769  0.1459  0.1341
 6084WAT     H125042   6.332   5.519   1.286 -0.5831  1.3692  0.1526
 6084WAT     H225043   6.424   5.586   1.361  0.1290  0.1222  0.4248
 6084WAT    EPW25044   6.364   5.537   1.355  0.0738  0.0572 -0.0991
 6085WAT      O25045   5.825   3.991   0.890 -0.0685 -0.2277 -0.1034
 6085WAT     H125046   5.881   4.032   0.838 -1.2783  0.2591 -1.0584
 6085WAT     H225047   5.828   3.908   0.863  1.6412 -0.6472  1.1809
 6085WAT    EPW25048   5.834   3.985   0.878 -0.7215 -0.3828 -0.0061
 6086WAT      O25049   2.044   3.673   4.328 -0.4420 -0.3273 -0.6594
 6086WAT     H125050   2.079   3.605   4.286  1.4027  0.7960 -1.0434
 6086WAT     H225051   2.033   3.732   4.265  1.2478  0.9500  0.1921
 6086WAT    EPW25052   2.047   3.671   4.312  0.1131  0.1230 -0.2095
 6087WAT      O25053   0.530   0.012   7.118 -0.3620  0.6591 -0.0268
 6087WAT     H125054   0.459   0.059   7.100 -2.0044 -1.6980 -0.1506
 6087WAT     H225055   0.517  -0.063   7.075  2.2530  0.1295 -0.0869
 6087WAT    EPW25056   0.518   0.008   7.109 -0.3674 -0.4282  0.3003
 6088WAT      O25057   3.319   4.863   7.343  0.3210  0.3269 -0.0389
 6088WAT     H125058   3.320   4.914   7.414 -3.4116  0.1727  0.3079
 6088WAT     H225059   3.330   4.919   7.277 -1.6726  1.3593  0.4391
 6088WAT    EPW25060   3.321   4.879   7.344  0.2013 -0.2293 -0.0933
 6089WAT      O25061   3.157   0.494   4.561 -0.0956 -0.1466 -0.4338
 6089WAT     H125062   3.226   0.442   4.575  0.6382  1.1448  1.2596
 6089WAT     H225063   3.184   0.548   4.498  0.4978  0.3355  0.2023
 6089WAT    EPW25064   3.171   0.494   4.554 -0.3910 -0.3292  0.6489
 6090WAT      O25065   3.612   3.071   1.987 -0.0396 -0.3064 -0.0500
 6090WAT     H125066   3.559   3.107   2.046 -0.2489 -0.2492 -0.2719
 6090WAT     H225067   3.691   3.090   2.017 -0.1103 -1.5169  0.9964
 6090WAT    EPW25068   3.616   3.079   2.000  0.0860  0.5759  0.5371
 6091WAT      O25069   4.152   1.037   0.289 -0.4250 -0.4438 -0.2387
 6091WAT     H125070   4.069   1.051   0.265 -0.3490  2.5814  0.8887
 6091WAT     H225071   4.196   1.102   0.251  1.0243 -0.5014  1.2374
 6091WAT    EPW25072   4.146   1.048   0.280  0.1211 -0.3487  0.0704
 6092WAT      O25073   6.912   1.531   5.125  0.0405 -0.0978  0.2472
 6092WAT     H125074   6.969   1.579   5.170  0.5038  0.3310 -0.7641
 6092WAT     H225075   6.951   1.453   5.121 -0.0644 -0.1733  0.7046
 6092WAT    EPW25076   6.926   1.527   5.131  0.6329  0.7092 -0.2650
 6093WAT      O25077   7.030   6.281   6.986  0.3876  0.9367 -0.6892
 6093WAT     H125078   7.037   6.300   7.071  0.0918  2.8692 -1.0531
 6093WAT     H225079   7.057   6.198   6.981 -0.3935  0.4941  1.4067
 6093WAT    EPW25080   7.035   6.271   6.998  0.6912  0.8747  0.5681
 6094WAT      O25081   5.534   4.386   3.863 -0.3430  0.0861 -0.3940
 6094WAT     H125082   5.525   4.387   3.776  0.5997 -0.0568 -0.5031
 6094WAT     H225083   5.611   4.425   3.876  0.2461 -1.2108  0.2597
 6094WAT    EPW25084   5.544   4.392   3.852  0.2238  0.3873 -0.3260
 6095WAT      O25085   0.625   4.704   1.035 -0.3973  0.2632 -0.3353
 6095WAT     H125086   0.633   4.748   1.110  1.1276  0.8050 -0.7789
 6095WAT     H225087   0.707   4.682   1.016 -0.9595 -1.5462 -0.8792
 6095WAT    EPW25088   0.639   4.707   1.044 -0.4320 -0.3396  0.7476
 6096WAT      O25089   3.634   0.539   6.719  0.1995  0.3313 -0.3739
 6096WAT     H125090   3.649   0.612   6.764 -0.6154  0.8491 -0.9091
 6096WAT     H225091   3.688   0.481   6.755  1.1922  1.3078 -0.2453
 6096WAT    EPW25092   3.644   0.541   6.731 -0.0512 -0.4456 -0.3219
 6097WAT      O25093   5.044   3.200   2.414 -0.3063  0.4890 -0.1811
 6097WAT     H125094   5.119   3.236   2.390  0.6773 -0.8575  0.6932
 6097WAT     H225095   5.001   3.187   2.339  1.2718 -0.6808 -0.9301
 6097WAT    EPW25096   5.049   3.204   2.400 -0.1519  0.3900  0.2140
 6098WAT      O25097   2.543   0.295   2.248 -0.4954  0.0804 -0.0082
 6098WAT     H125098   2.572   0.225   2.205  0.5037  1.4604 -1.7138
 6098WAT     H225099   2.462   0.306   2.218 -0.7100 -0.4146  0.3782
 6098WAT    EPW25100   2.535   0.286   2.237  0.1189  0.4685 -0.3902
 6099WAT      O25101   6.336   2.459   2.098 -0.4767 -0.0129  0.3509
 6099WAT     H125102   6.297   2.388   2.066 -2.0182  0.2585  1.5246
 6099WAT     H225103   6.293   2.525   2.060  0.7571  0.3209 -0.5173
 6099WAT    EPW25104   6.324   2.458   2.088  0.1466 -0.0444  0.3958
 6100WAT      O25105   7.353   1.648   2.935  0.0842  0.2222  0.5308
 6100WAT     H125106   7.356   1.626   2.851 -1.3140  0.9296  0.2532
 6100WAT     H225107   7.343   1.572   2.976  2.6184 -0.3420  0.2740
 6100WAT    EPW25108   7.352   1.633   2.928  0.2387 -0.4586  0.3655
 6101WAT      O25109   3.258   7.412   6.524  0.1539  0.0233  0.0116
 6101WAT     H125110   3.205   7.376   6.583 -0.7098  0.4824 -0.4521
 6101WAT     H225111   3.318   7.351   6.510 -0.1047 -0.4155  0.7463
 6101WAT    EPW25112   3.259   7.398   6.531  0.1846 -0.4560  0.0549
 6102WAT      O25113   6.856   7.567   7.457  0.3309  0.2826 -0.2721
 6102WAT     H125114   6.934   7.529   7.452 -0.0332 -0.6361  0.8262
 6102WAT     H225115   6.875   7.651   7.474  1.0965  0.3714 -1.4593
 6102WAT    EPW25116   6.870   7.574   7.458  0.0672  0.1379 -0.0120
 6103WAT      O25117   4.599   2.527   6.454 -0.4156  0.0767  0.0028
 6103WAT     H125118   4.639   2.473   6.398 -1.1483 -0.0432 -0.4261
 6103WAT     H225119   4.636   2.508   6.531  0.0460 -0.3223 -0.3074
 6103WAT    EPW25120   4.610   2.516   6.457 -0.6163 -0.7297  0.1645
 6104WAT      O25121   7.236   7.245   4.447 -0.1207  0.9204  0.2414
 6104WAT     H125122   7.243   7.306   4.385 -0.1134  0.0451 -0.6378
 6104WAT     H225123   7.309   7.254   4.493 -0.5557  2.2081  0.7170
 6104WAT    EPW25124   7.248   7.255   4.445 -0.2219  0.1137 -0.3394
 6105WAT      O25125   4.482   6.986   4.176 -0.1739  0.3162  0.1963
 6105WAT     H125126   4.567   6.966   4.175 -0.6023 -1.6648  0.4754
 6105WAT     H225127   4.468   7.010   4.259  0.4798  2.6118 -0.2894
 6105WAT    EPW25128   4.493   6.987   4.189 -0.5079  0.1339  0.8872
 6106WAT      O25129   5.329   4.316   0.979  0.2053 -0.8572 -0.3434
 6106WAT     H125130   5.301   4.331   1.061  0.6259  1.7533 -0.5828
 6106WAT     H225131   5.379   4.385   0.962  0.7460 -1.7147 -2.5707
 6106WAT    EPW25132   5.332   4.328   0.989  0.6042 -0.4709  0.0860
 6107WAT      O25133   1.157   5.009   6.108  0.0273 -0.5755 -0.0588
 6107WAT     H125134   1.226   5.059   6.093  0.8486 -2.0202 -1.3914
 6107WAT     H225135   1.090   5.064   6.100  0.9678  0.8372  1.1640
 6107WAT    EPW25136   1.157   5.024   6.104 -0.1425  0.3831 -0.0400
 6108WAT      O25137   7.180   5.159   3.988  0.7648  0.3575  0.2416
 6108WAT     H125138   7.128   5.225   4.013  1.2866  1.3605 -1.1720
 6108WAT     H225139   7.255   5.175   4.030  0.8287  0.5721  0.0507
 6108WAT    EPW25140   7.184   5.171   3.998 -0.0212  0.3562  0.0105
 6109WAT      O25141   2.715   2.335   4.328 -0.3176  0.0727 -0.2164
 6109WAT     H125142   2.633   2.354   4.305 -0.2914  1.8841  1.0558
 6109WAT     H225143   2.739   2.402   4.378  0.8235 -1.9757  2.1908
 6109WAT    EPW25144   2.707   2.348   4.332  0.9954  0.3893  0.7719
 6110WAT      O25145   4.738   6.421   1.981 -0.0151  0.1110  0.2082
 6110WAT     H125146   4.676   6.388   2.032 -0.8896  0.2155 -0.7527
 6110WAT     H225147   4.799   6.449   2.038 -1.1288  0.5822  1.2059
 6110WAT    EPW25148   4.738   6.421   1.997  0.1547 -0.1305 -0.4444
 6111WAT      O25149   1.855   0.934   4.750 -0.3247  0.0543  0.4896
 6111WAT     H125150   1.937   0.914   4.728  0.3677  1.1263  1.9163
 6111WAT     H225151   1.823   0.858   4.779 -0.4879 -0.8177 -1.7666
 6111WAT    EPW25152   1.863   0.920   4.751  0.3877  0.1603  0.0161
 6112WAT      O25153   6.821   6.088   1.097 -0.1404 -0.1177 -0.1666
 6112WAT     H125154   6.793   6.009   1.072 -0.6864  0.3954 -1.2502
 6112WAT     H225155   6.779   6.102   1.172 -0.8392 -0.4476 -0.4836
 6112WAT    EPW25156   6.811   6.079   1.104 -0.2458  0.1799  0.1031
 6113WAT      O25157   0.669   5.707   0.855 -0.0406 -0.1430  0.6926
 6113WAT     H125158   0.681   5.621   0.852 -0.3705 -0.2572  2.0465
 6113WAT     H225159   0.731   5.735   0.909 -1.0103  0.2331  1.6363
 6113WAT    EPW25160   0.680   5.699   0.862 -0.1800  0.0688  0.1598
 6114WAT      O25161   3.760   6.028   4.143 -0.3243 -0.0900  0.1030
 6114WAT     H125162   3.681   5.994   4.160 -0.5573 -0.2993 -1.2780
 6114WAT     H225163   3.813   5.982   4.194 -1.0400 -0.2443  0.7319
 6114WAT    EPW25164   3.756   6.016   4.153 -0.1920 -0.2962 -0.0571
 6115WAT      O25165   5.173   6.653   4.166 -0.0267  0.2127 -0.2054
 6115WAT     H125166   5.114   6.589   4.160 -0.6314  0.5885  1.2816
 6115WAT     H225167   5.179   6.684   4.084 -2.0928  0.3329 -0.3467
 6115WAT    EPW25168   5.165   6.648   4.153 -0.1102  0.1963  0.1828
 6116WAT      O25169   2.128   7.488   1.883  0.1662  0.4973  0.4097
 6116WAT     H125170   2.199   7.470   1.836 -0.4354  1.0542 -0.7566
 6116WAT     H225171   2.087   7.549   1.836 -1.5226 -0.4311  0.5996
 6116WAT    EPW25172   2.133   7.495   1.869  0.4651  0.1488 -0.2149
 6117WAT      O25173   7.448   6.411   5.344  0.3108 -0.1393 -0.5563
 6117WAT     H125174   7.406   6.371   5.279 -0.3375  1.2072 -1.0136
 6117WAT     H225175   7.415   6.492   5.342 -0.1907 -0.2223  1.8409
 6117WAT    EPW25176   7.437   6.417   5.334 -0.5712  0.4096 -0.3092
 6118WAT      O25177   0.292   3.168   4.142  0.2583 -0.2214 -0.2251
 6118WAT     H125178   0.366   3.149   4.183  1.1776 -1.0769 -2.1833
 6118WAT     H225179   0.259   3.235   4.188  2.2007  0.1427  0.7097
 6118WAT    EPW25180   0.298   3.175   4.155 -0.1604  0.0674  0.0524
 6119WAT      O25181   1.804   4.548   5.721  0.1714  0.3740  0.1520
 6119WAT     H125182   1.828   4.464   5.719  0.0170  0.3347 -0.7327
 6119WAT     H225183   1.731   4.549   5.673 -0.4227  0.8438  1.0552
 6119WAT    EPW25184   1.797   4.536   5.713  0.4806  0.0855  0.5654
 6120WAT      O25185   5.005   3.614   7.483 -0.2353 -0.2821  1.0574
 6120WAT     H125186   4.920   3.596   7.474 -0.2147  0.0751 -0.0521
 6120WAT     H225187   5.039   3.589   7.407  0.3111  1.3663  0.7055
 6120WAT    EPW25188   4.997   3.608   7.470 -0.1994 -0.4352 -0.2619
 6121WAT      O25189   0.224   4.686   2.152  0.3417 -0.1543  0.4920
 6121WAT     H125190   0.305   4.653   2.153 -0.1544 -1.5186  2.8807
 6121WAT     H225191   0.180   4.630   2.101  0.6116 -0.1357  0.2334
 6121WAT    EPW25192   0.230   4.673   2.145  0.3413 -0.1100 -0.2711
 6122WAT      O25193   2.792   0.622   7.568 -0.5836 -0.3944  0.6906
 6122WAT     H125194   2.828   0.598   7.492 -3.1834  0.2269 -0.8528
 6122WAT     H225195   2.846   0.683   7.598  2.1840 -2.7823  1.0104
 6122WAT    EPW25196   2.805   0.627   7.561  0.0401  0.0993  0.2658
 6123WAT      O25197   4.293   6.980   0.419 -0.0503 -0.2880  0.1080
 6123WAT     H125198   4.344   6.958   0.351 -0.6901 -0.7345 -0.2433
 6123WAT     H225199   4.254   7.053   0.393 -0.9017 -0.8839 -0.3558
 6123WAT    EPW25200   4.295   6.987   0.405 -0.4119  0.8521 -0.3736
 6124WAT      O25201   3.349   7.172   0.147 -0.0173  0.1445 -0.1786
 6124WAT     H125202   3.315   7.180   0.067 -2.4081 -2.1620  0.5119
 6124WAT     H225203   3.333   7.250   0.183 -0.8765  0.4823 -1.2272
 6124WAT    EPW25204   3.342   7.185   0.140  0.3285 -0.4956  0.6584
 6125WAT      O25205   1.199   3.765   2.181 -0.3566  0.2786 -0.6581
 6125WAT     H125206   1.250   3.833   2.199  2.3894 -1.8497  0.3864
 6125WAT     H225207   1.254   3.707   2.145 -1.9402 -2.2893  0.7488
 6125WAT    EPW25208   1.215   3.766   2.178 -0.2985  0.4414 -0.3806
 6126WAT      O25209   1.750   6.693   1.219  0.5777  0.1916 -0.3044
 6126WAT     H125210   1.675   6.660   1.189  0.3857 -0.0266  0.3752
 6126WAT     H225211   1.806   6.679   1.155  0.5296 -1.5842 -0.0141
 6126WAT    EPW25212   1.747   6.686   1.205 -0.1517  0.3093 -0.1092
 6127WAT      O25213   4.398   1.915   0.702  0.4638  0.8678  0.3406
 6127WAT     H125214   4.390   1.934   0.787  1.6568  0.4501  0.5687
 6127WAT     H225215   4.390   1.828   0.701 -2.9162  1.0484 -0.4303
 6127WAT    EPW25216   4.395   1.905   0.714  0.3083  1.1739  0.1442
 6128WAT      O25217   6.800   5.863   3.541 -0.2544  0.3434  0.4390
 6128WAT     H125218   6.774   5.936   3.501  0.7954 -0.4306 -1.8176
 6128WAT     H225219   6.779   5.799   3.485 -1.0550 -1.1373  2.3048
 6128WAT    EPW25220   6.793   5.864   3.527 -0.3628 -0.2236  0.2068
 6129WAT      O25221   7.330   0.553   6.646  0.0933 -0.1622 -0.1888
 6129WAT     H125222   7.290   0.524   6.575 -1.2587 -1.2272  0.9569
 6129WAT     H225223   7.414   0.557   6.623  0.0738 -2.9871 -1.0794
 6129WAT    EPW25224   7.337   0.550   6.632 -0.0042  0.1293  0.2987
 6130WAT      O25225   0.021   3.118   0.554  0.4199 -0.1126  0.2441
 6130WAT     H125226  -0.061   3.095   0.575 -0.3803  1.4728 -0.9286
 6130WAT     H225227   0.037   3.187   0.605 -0.6268  2.2151 -2.3372
 6130WAT    EPW25228   0.011   3.125   0.564  0.2538 -0.0586  0.2803
 6131WAT      O25229   2.716   6.505   5.648 -0.1894 -0.3762 -0.5628
 6131WAT     H125230   2.676   6.557   5.705 -0.3102 -0.6702 -0.3768
 6131WAT     H225231   2.772   6.460   5.697 -0.0305 -0.3721 -0.7348
 6131WAT    EPW25232   2.718   6.506   5.663  0.0371 -0.0130  0.4693
 6132WAT      O25233   3.427   3.354   2.352 -0.3446 -0.2248  0.5693
 6132WAT     H125234   3.369   3.380   2.412  0.4557  1.5339  0.6472
 6132WAT     H225235   3.488   3.416   2.354 -0.1123 -0.2551 -1.8221
 6132WAT    EPW25236   3.428   3.367   2.361  0.1253 -0.0618  0.2652
 6133WAT      O25237   6.437   4.823   1.599 -0.1786 -0.0093 -0.2353
 6133WAT     H125238   6.395   4.845   1.673 -1.7216 -1.2040 -0.6992
 6133WAT     H225239   6.415   4.740   1.588  2.5589 -0.7980 -0.4245
 6133WAT    EPW25240   6.427   4.814   1.608 -1.1836 -0.9051 -0.2787
 6134WAT      O25241   7.256   7.439   2.198 -0.3034  0.4448  0.8518
 6134WAT     H125242   7.201   7.483   2.147  0.3898  0.6413  0.2582
 6134WAT     H225243   7.307   7.500   2.233  0.5314  0.1491  0.1844
 6134WAT    EPW25244   7.256   7.454   2.196  0.2433 -0.1037  0.5099
 6135WAT      O25245   0.374   4.670   0.939  0.6249 -0.4941  0.1690
 6135WAT     H125246   0.331   4.730   0.987 -0.2116  0.2787 -1.4483
 6135WAT     H225247   0.457   4.681   0.963  0.4597  1.1335  0.1545
 6135WAT    EPW25248   0.380   4.681   0.950 -0.7916 -0.0536 -0.0147
 6136WAT      O25249   1.142   0.351   5.286  0.1464 -0.0922  0.0774
 6136WAT     H125250   1.176   0.409   5.341 -1.5018  0.6044  0.4129
 6136WAT     H225251   1.089   0.398   5.236 -2.4485 -1.4472  1.3535
 6136WAT    EPW25252   1.139   0.366   5.287 -0.0119  0.0898 -0.2077
 6137WAT      O25253   0.747   0.458   0.144 -0.4098  0.0871 -0.5966
 6137WAT     H125254   0.752   0.456   0.231  0.9180 -2.3118 -0.6315
 6137WAT     H225255   0.751   0.543   0.124 -1.7539  0.7599  1.6924
 6137WAT    EPW25256   0.748   0.470   0.154  0.1432  0.4661 -0.2248
 6138WAT      O25257   0.794   4.966   6.184 -0.0582 -0.2739 -0.6404
 6138WAT     H125258   0.833   4.936   6.256 -0.3256 -0.3588 -0.5271
 6138WAT     H225259   0.716   4.993   6.214 -0.1085 -0.1652 -0.8714
 6138WAT    EPW25260   0.788   4.965   6.199 -0.3375  0.6319 -0.1669
 6139WAT      O25261   3.167   4.453   1.024 -0.3977 -0.1511 -0.4436
 6139WAT     H125262   3.110   4.508   1.059 -0.7010 -0.8407  0.1711
 6139WAT     H225263   3.244   4.482   1.053 -0.6440 -0.7683  0.9171
 6139WAT    EPW25264   3.170   4.465   1.033 -0.1376  0.1100  0.5394
 6140WAT      O25265   4.165   4.643   4.772  0.6178  0.3388  0.5048
 6140WAT     H125266   4.098   4.618   4.723  1.1581 -0.5323  0.1975
 6140WAT     H225267   4.127   4.676   4.844 -0.1625  1.1647 -0.2578
 6140WAT    EPW25268   4.150   4.644   4.776  0.1393 -0.2547  0.8357
 6141WAT      O25269   1.692   0.066   3.972  0.1779 -0.2788 -0.5525
 6141WAT     H125270   1.745   0.135   3.976 -0.0786 -0.1454  1.7627
 6141WAT     H225271   1.654   0.074   3.894  1.4693  1.1789 -1.0809
 6141WAT    EPW25272   1.694   0.077   3.961  0.0848 -0.3377  0.8191
 6142WAT      O25273   0.708   4.851   5.653 -0.2457  0.4605 -0.4251
 6142WAT     H125274   0.718   4.847   5.739  0.1957  0.2223 -0.4838
 6142WAT     H225275   0.716   4.768   5.627 -0.1556  0.5572 -0.7134
 6142WAT    EPW25276   0.711   4.838   5.662  0.0894  0.4457 -0.0014
 6143WAT      O25277   3.639   0.354   6.357 -0.1062  0.2957 -0.0524
 6143WAT     H125278   3.588   0.310   6.413  1.7850 -1.5950  0.3366
 6143WAT     H225279   3.716   0.315   6.366  0.9139  1.6898 -2.1040
 6143WAT    EPW25280   3.643   0.342   6.367  0.0122  0.6517 -0.5793
 6144WAT      O25281   6.370   5.204   4.769  0.2117  0.1191 -0.3453
 6144WAT     H125282   6.351   5.119   4.764  1.4648 -0.4290  2.4384
 6144WAT     H225283   6.380   5.227   4.686 -0.1663 -2.4378 -1.1974
 6144WAT    EPW25284   6.368   5.195   4.756 -0.4304 -0.5257  0.0749
 6145WAT      O25285   6.262   2.243   0.097  0.2904 -0.2081 -0.0684
 6145WAT     H125286   6.342   2.224   0.124  0.7102  0.2783 -0.9310
 6145WAT     H225287   6.212   2.223   0.166  1.0100 -1.5490  0.0998
 6145WAT    EPW25288   6.266   2.237   0.111 -0.6229 -0.3012  0.3958
 6146WAT      O25289   1.491   1.123   2.212  0.2347 -0.1198  0.2909
 6146WAT     H125290   1.578   1.128   2.209  0.4245 -0.4370  3.1101
 6146WAT     H225291   1.466   1.172   2.144  2.5791  0.7215 -0.0730
 6146WAT    EPW25292   1.500   1.131   2.201 -0.2972 -1.0617  0.2448
 6147WAT      O25293   5.650   6.944   4.964 -0.3844  0.5617  0.0123
 6147WAT     H125294   5.686   6.975   4.891  0.3270 -0.4341 -0.0793
 6147WAT     H225295   5.572   6.983   4.967 -0.3563  0.7366 -1.1869
 6147WAT    EPW25296   5.644   6.954   4.954  0.0809  0.3868 -0.1723
 6148WAT      O25297   0.839   4.054   5.477  0.0223  0.2099 -0.5371
 6148WAT     H125298   0.922   4.060   5.453  1.0843  0.5941  2.7113
 6148WAT     H225299   0.836   3.979   5.522 -1.0869  0.7388  0.3287
 6148WAT    EPW25300   0.851   4.044   5.480 -0.4180 -0.1153  0.5136
 6149WAT      O25301   0.822   5.071   0.020  0.9041 -0.5693 -0.4623
 6149WAT     H125302   0.784   4.994   0.034 -0.9996  0.5179  0.9193
 6149WAT     H225303   0.818   5.110   0.098 -1.9719  2.4696 -1.8693
 6149WAT    EPW25304   0.816   5.066   0.034 -0.4068 -0.2014  0.0927
 6150WAT      O25305   5.075   3.048   2.681 -0.2202 -0.2917  0.3593
 6150WAT     H125306   5.058   3.082   2.602 -1.4735 -0.0958  0.6997
 6150WAT     H225307   5.058   2.963   2.671 -0.8252 -0.1913  0.5447
 6150WAT    EPW25308   5.070   3.041   2.668 -0.9966  0.5071  0.7975
 6151WAT      O25309   1.403   5.074   0.680 -0.0647 -0.4384  0.3149
 6151WAT     H125310   1.344   5.029   0.727  0.6207  0.5438  2.2057
 6151WAT     H225311   1.478   5.061   0.723  1.0266 -1.0709 -1.6472
 6151WAT    EPW25312   1.405   5.065   0.694  0.3712  0.1173  0.2826
 6152WAT      O25313   6.052   0.929   3.128 -0.3388  0.2461  0.6910
 6152WAT     H125314   6.075   0.855   3.169  0.4341  1.2303  2.1203
 6152WAT     H225315   6.087   0.992   3.177 -2.7332  1.6881  0.7071
 6152WAT    EPW25316   6.061   0.928   3.141  0.1718  0.2955  0.1448
 6153WAT      O25317   2.394   5.981   5.940 -0.4042  0.2343  0.0679
 6153WAT     H125318   2.328   5.930   5.913 -0.4175 -0.5216  1.4278
 6153WAT     H225319   2.462   5.926   5.943  0.2029  0.9046 -0.8883
 6153WAT    EPW25320   2.394   5.965   5.937  0.5109  0.1805 -0.3633
 6154WAT      O25321   2.069   0.559   2.429  0.4213 -0.4313 -0.5618
 6154WAT     H125322   1.999   0.611   2.422  1.3328  0.9026 -0.0620
 6154WAT     H225323   2.079   0.550   2.515 -0.7326 -2.9045 -0.6115
 6154WAT    EPW25324   2.060   0.566   2.441  0.0025  0.1201  0.3321
 6155WAT      O25325   5.303   4.651   4.750  0.4958  0.1861 -0.3364
 6155WAT     H125326   5.296   4.643   4.663 -0.3642 -0.9273 -0.1861
 6155WAT     H225327   5.226   4.624   4.779  1.6899 -2.2578  0.9158
 6155WAT    EPW25328   5.291   4.646   4.741  0.3542 -0.4500  0.1275
 6156WAT      O25329   4.873   3.229   0.533 -0.0891  0.6170  0.3893
 6156WAT     H125330   4.815   3.179   0.574 -0.0487 -0.3845 -0.7304
 6156WAT     H225331   4.947   3.213   0.576  0.1895 -1.2700 -0.6678
 6156WAT    EPW25332   4.875   3.219   0.546 -0.6881  0.0283 -0.3280
 6157WAT      O25333   1.888   1.861   6.183 -0.1788 -0.1157  0.5217
 6157WAT     H125334   1.841   1.893   6.117  3.6884  1.7511 -1.6638
 6157WAT     H225335   1.923   1.788   6.151 -0.5182 -0.7875  1.6233
 6157WAT    EPW25336   1.886   1.855   6.169 -0.3255 -0.5882 -0.2096
 6158WAT      O25337   0.700   5.832   6.403  0.2278 -0.1712 -0.6930
 6158WAT     H125338   0.700   5.908   6.360 -0.4198  0.6916  0.7397
 6158WAT     H225339   0.781   5.827   6.434  0.0163  0.4206 -0.0187
 6158WAT    EPW25340   0.712   5.842   6.401  0.1676  0.1738 -0.1632
 6159WAT      O25341   3.832   2.644   1.096  0.6611 -0.5583 -0.2601
 6159WAT     H125342   3.829   2.638   1.183 -1.7288 -0.0110 -0.2228
 6159WAT     H225343   3.895   2.589   1.073  0.6977 -1.4375  1.7643
 6159WAT    EPW25344   3.841   2.635   1.105  0.2182  0.8538  0.1054
 6160WAT      O25345   3.913   7.551   1.177  0.0575 -0.1098 -0.1471
 6160WAT     H125346   3.941   7.598   1.108 -0.6521  0.9446  0.2652
 6160WAT     H225347   3.882   7.611   1.232  2.1984 -0.7404  1.9124
 6160WAT    EPW25348   3.913   7.567   1.175  0.0418  0.0692  0.3686
 6161WAT      O25349   5.500   2.558   1.472 -0.0616 -0.2044 -0.1853
 6161WAT     H125350   5.498   2.541   1.386  2.5812 -0.6901 -0.2380
 6161WAT     H225351   5.494   2.645   1.476 -0.1455 -0.1762 -0.8903
 6161WAT    EPW25352   5.499   2.568   1.460 -0.2177 -0.4043  0.5989
 6162WAT      O25353   4.887   7.302   6.378 -0.4188  0.0376 -0.2542
 6162WAT     H125354   4.956   7.355   6.382 -0.5613  0.2265 -0.2602
 6162WAT     H225355   4.920   7.224   6.398 -0.0760  0.0003 -0.9453
 6162WAT    EPW25356   4.902   7.299   6.382 -0.2184  0.2364  0.1124
 6163WAT      O25357   1.399   4.223   6.502 -0.1137  0.0244  0.0014
 6163WAT     H125358   1.456   4.168   6.465 -0.4026 -0.5562  0.4004
 6163WAT     H225359   1.414   4.212   6.588 -0.2807  0.4566  0.0890
 6163WAT    EPW25360   1.410   4.213   6.509  0.1739  0.7926  0.3648
 6164WAT      O25361   1.529   0.964   4.227 -0.7241 -0.1418  0.4532
 6164WAT     H125362   1.561   0.918   4.294 -0.4677 -2.1780 -0.9861
 6164WAT     H225363   1.458   0.919   4.203 -1.3642  1.0974 -0.0642
 6164WAT    EPW25364   1.523   0.951   4.233  0.4458  0.0358 -0.6666
 6165WAT      O25365   5.339   1.212   4.309  0.4115 -0.3860 -0.5753
 6165WAT     H125366   5.339   1.240   4.227  0.6821 -0.5968 -0.6458
 6165WAT     H225367   5.365   1.282   4.355 -0.5163 -0.0219 -0.5834
 6165WAT    EPW25368   5.343   1.226   4.304 -0.1811 -0.4925 -0.2160
 6166WAT      O25369   6.805   5.100   6.862  0.0008 -0.4967  0.2856
 6166WAT     H125370   6.756   5.074   6.794 -0.7593  3.9249 -1.2164
 6166WAT     H225371   6.755   5.082   6.931 -1.7428 -0.2591 -0.8391
 6166WAT    EPW25372   6.790   5.094   6.862 -0.1609 -0.0145 -0.1248
 6167WAT      O25373   7.085   4.249   4.854  0.4141 -0.1493 -0.0576
 6167WAT     H125374   7.139   4.254   4.923  1.6317 -0.7885 -0.9146
 6167WAT     H225375   7.029   4.187   4.876 -0.1983  0.7310  0.9815
 6167WAT    EPW25376   7.085   4.241   4.868  0.3446 -0.4466 -0.5209
 6168WAT      O25377   2.289   6.876   5.772 -0.6432 -0.7024  0.4399
 6168WAT     H125378   2.292   6.891   5.686  0.7553 -0.0752  0.5774
 6168WAT     H225379   2.219   6.826   5.781 -2.4288  1.4070 -0.7204
 6168WAT    EPW25380   2.279   6.871   5.760 -0.1588  0.3983 -0.0848
 6169WAT      O25381   1.524   7.103   5.107 -0.3048 -0.2471 -0.2359
 6169WAT     H125382   1.588   7.138   5.155 -1.3619 -0.4249  1.3823
 6169WAT     H225383   1.467   7.168   5.099 -0.5485 -0.4881 -0.4699
 6169WAT    EPW25384   1.525   7.118   5.113  0.3742  0.2783 -0.0625
 6170WAT      O25385   1.698   3.285   4.477 -0.3873  0.6656 -0.5805
 6170WAT     H125386   1.716   3.333   4.406  1.6814 -1.1874 -1.4161
 6170WAT     H225387   1.772   3.289   4.523 -0.3136 -1.3048 -0.4601
 6170WAT    EPW25388   1.711   3.293   4.474  0.3816  0.1706 -0.4916
 6171WAT      O25389   5.619   4.471   7.503  0.1095 -0.0551  0.1415
 6171WAT     H125390   5.695   4.454   7.542 -0.3203 -3.5587 -0.1850
 6171WAT     H225391   5.568   4.499   7.568  1.2695  1.0238  0.6268
 6171WAT    EPW25392   5.622   4.472   7.518  0.2005  0.3832 -0.0355
 6172WAT      O25393   1.750   7.479   3.343 -0.3339  0.1874 -0.2635
 6172WAT     H125394   1.687   7.437   3.386  1.0143  0.0041  1.6189
 6172WAT     H225395   1.715   7.491   3.264 -3.0283  0.7541  0.8935
 6172WAT    EPW25396   1.735   7.475   3.337  0.5960 -0.0571 -0.2982
 6173WAT      O25397   1.952   6.997   2.961 -0.1554  0.1356  0.4840
 6173WAT     H125398   1.962   7.029   3.042  0.0631  1.7905 -0.1640
 6173WAT     H225399   1.873   7.026   2.938 -0.8250 -1.5183  0.5957
 6173WAT    EPW25400   1.942   7.006   2.970  0.4270  0.0154 -0.0421
 6174WAT      O25401   4.217   4.623   6.163  0.2991  0.5160 -0.2575
 6174WAT     H125402   4.293   4.585   6.179  1.0489  0.1956 -3.7749
 6174WAT     H225403   4.200   4.601   6.080 -3.5242  0.7957  0.2761
 6174WAT    EPW25404   4.226   4.614   6.153 -0.0840  0.2385 -1.1219
 6175WAT      O25405   2.775   0.195   2.370  0.0432  0.0691 -0.3651
 6175WAT     H125406   2.707   0.238   2.337 -0.1299  0.0683 -0.0142
 6175WAT     H225407   2.743   0.160   2.444  0.2629 -0.4151 -0.4978
 6175WAT    EPW25408   2.760   0.197   2.376 -0.6388  0.3197  0.3391
 6176WAT      O25409   5.026   0.356   7.218 -0.1526 -0.4975 -0.3837
 6176WAT     H125410   5.055   0.311   7.287 -0.2104  0.0340 -0.0065
 6176WAT     H225411   5.055   0.437   7.233 -1.1077 -0.1295 -0.4113
 6176WAT    EPW25412   5.034   0.361   7.231 -0.3693  0.6517 -0.3965
 6177WAT      O25413   5.949   5.339   2.683  0.2599  0.2286 -0.0646
 6177WAT     H125414   5.998   5.401   2.646 -1.2482  1.7837  0.3584
 6177WAT     H225415   5.869   5.376   2.686 -0.7900 -1.8905 -0.1105
 6177WAT    EPW25416   5.944   5.354   2.678  0.2953 -0.5645  0.4481
 6178WAT      O25417   5.401   5.592   1.599 -0.2482 -0.0249  0.0045
 6178WAT     H125418   5.432   5.518   1.565  1.7252  0.2260  1.1359
 6178WAT     H225419   5.359   5.565   1.671  0.4445 -0.0647  0.4014
 6178WAT    EPW25420   5.399   5.577   1.605  0.4068 -0.5943  0.3818
 6179WAT      O25421   7.582   5.689   5.757 -0.5319 -0.1531  0.6431
 6179WAT     H125422   7.584   5.768   5.794  1.2314 -0.3965  1.1838
 6179WAT     H225423   7.498   5.678   5.735 -1.0645  1.3007  1.7809
 6179WAT    EPW25424   7.570   5.699   5.759  0.2330 -0.3402  0.0500
 6180WAT      O25425   0.956   5.267   6.469 -0.2112 -0.3898  0.3933
 6180WAT     H125426   0.999   5.326   6.421 -0.8163  0.7483  1.1952
 6180WAT     H225427   1.019   5.213   6.497  0.4033  0.0739 -0.0699
 6180WAT    EPW25428   0.972   5.268   6.466 -0.8594  0.1212  0.6140
 6181WAT      O25429   1.615   6.892   4.188 -0.1744 -0.2469  0.0638
 6181WAT     H125430   1.559   6.837   4.225 -0.8582 -0.0316 -0.6195
 6181WAT     H225431   1.688   6.882   4.234  0.0308 -2.4367 -0.6619
 6181WAT    EPW25432   1.618   6.883   4.200  0.1742  0.4932  0.0209
 6182WAT      O25433   1.321   1.084   7.114 -0.2844  0.7524 -0.4109
 6182WAT     H125434   1.357   1.006   7.099  2.3549  1.0523  3.1001
 6182WAT     H225435   1.235   1.067   7.120  0.1344 -1.6959 -0.5265
 6182WAT    EPW25436   1.313   1.070   7.112  0.0776 -0.3821 -0.0306
 6183WAT      O25437   5.104   0.577   0.329  0.0432  0.0324  0.6366
 6183WAT     H125438   5.156   0.583   0.259  0.4135 -2.6683  0.5797
 6183WAT     H225439   5.119   0.651   0.372  1.3978  0.8245 -1.0687
 6183WAT    EPW25440   5.114   0.589   0.325 -0.0512  0.3890 -0.0227
 6184WAT      O25441   0.327   2.990   0.796  0.0273 -0.6162 -0.0751
 6184WAT     H125442   0.410   2.984   0.821 -0.2858  0.0240  1.2234
 6184WAT     H225443   0.332   3.006   0.710  1.2252 -0.9159 -0.0717
 6184WAT    EPW25444   0.340   2.991   0.787 -0.0989  0.9123 -1.2947
 6185WAT      O25445   5.552   6.613   5.861  0.4819  0.1266 -0.1950
 6185WAT     H125446   5.548   6.576   5.940 -0.2672  0.0602 -0.2562
 6185WAT     H225447   5.596   6.554   5.813 -1.6696 -1.2721 -0.5821
 6185WAT    EPW25448   5.558   6.599   5.865 -0.0665 -0.0515  0.3708
 6186WAT      O25449   3.025   0.017   3.357  0.8913  0.4583 -0.0351
 6186WAT     H125450   3.065   0.043   3.284  0.2941 -1.0860 -0.9600
 6186WAT     H225451   3.041  -0.069   3.360  0.3327  0.3676  1.2933
 6186WAT    EPW25452   3.033   0.008   3.347 -0.3114  0.1107 -0.1494
 6187WAT      O25453   0.172   3.208   1.628  0.0926  0.0169 -1.4616
 6187WAT     H125454   0.158   3.274   1.573 -0.4896  1.4012  0.2605
 6187WAT     H225455   0.095   3.198   1.668  0.4289 -1.1135 -1.0529
 6187WAT    EPW25456   0.158   3.216   1.625 -0.0995  0.3061  0.2381
 6188WAT      O25457   6.458   0.928   1.628 -0.5929  0.2921  0.1192
 6188WAT     H125458   6.458   0.841   1.619 -0.2799  0.2923  0.0785
 6188WAT     H225459   6.480   0.940   1.712 -0.4138  0.3321  0.0681
 6188WAT    EPW25460   6.461   0.917   1.639 -0.0676 -0.2780  0.2477
 6189WAT      O25461   0.969   4.149   1.192 -0.4784  0.3919  0.0986
 6189WAT     H125462   0.908   4.091   1.170  1.3860 -0.8181 -2.3319
 6189WAT     H225463   1.041   4.121   1.151  1.0549  3.2995  0.4888
 6189WAT    EPW25464   0.971   4.136   1.183  0.8433  0.7580 -0.4648
 6190WAT      O25465   5.062   0.338   0.542  0.0945  0.7702 -0.2708
 6190WAT     H125466   5.085   0.287   0.476 -0.4655  1.3747 -0.9433
 6190WAT     H225467   5.070   0.419   0.510 -0.8929  1.0480  0.1534
 6190WAT    EPW25468   5.066   0.342   0.528 -0.4396 -0.3523  0.2017
 6191WAT      O25469   7.151   2.819   7.108  0.3569  0.1531 -0.9494
 6191WAT     H125470   7.136   2.771   7.179  2.6225 -1.0866 -1.2209
 6191WAT     H225471   7.079   2.867   7.100 -1.0257 -1.4979  0.7263
 6191WAT    EPW25472   7.138   2.819   7.117 -0.1913  0.2877  1.2064
 6192WAT      O25473   4.534   1.638   4.720 -0.1218 -0.2428  0.1098
 6192WAT     H125474   4.464   1.668   4.677  0.5654  0.3715 -0.6132
 6192WAT     H225475   4.506   1.632   4.802 -1.2721 -0.8141 -0.2990
 6192WAT    EPW25476   4.519   1.641   4.726 -0.0623  0.7364  0.2413
 6193WAT      O25477   2.370   3.280   2.926 -0.1774  0.6837  0.4528
 6193WAT     H125478   2.446   3.322   2.933 -0.8044  1.8045  0.7217
 6193WAT     H225479   2.364   3.263   2.841  0.5303  0.2535  0.4740
 6193WAT    EPW25480   2.380   3.284   2.915  0.2832  0.1192 -0.5692
 6194WAT      O25481   0.701   5.311   6.155  0.0886  0.3581 -0.0213
 6194WAT     H125482   0.692   5.397   6.168 -0.6720  0.2121  0.4680
 6194WAT     H225483   0.693   5.277   6.235  0.3413 -0.1767 -0.2152
 6194WAT    EPW25484   0.699   5.319   6.169  0.1326  0.5489  0.2729
 6195WAT      O25485   1.964   5.606   2.949  0.2447 -0.0246  0.9784
 6195WAT     H125486   1.911   5.663   2.909 -0.6707 -1.0800  0.6359
 6195WAT     H225487   1.911   5.540   2.969  1.0212 -0.2235  2.5081
 6195WAT    EPW25488   1.948   5.605   2.946 -0.3127  0.0209  0.3390
 6196WAT      O25489   6.680   5.491   1.760 -0.1758 -0.5467 -0.0976
 6196WAT     H125490   6.754   5.447   1.772  0.1021 -0.6873 -2.0739
 6196WAT     H225491   6.620   5.428   1.752  0.0894 -0.5976 -2.0763
 6196WAT    EPW25492   6.682   5.475   1.761 -0.0266  0.3368  0.3425
 6197WAT      O25493   6.574   7.221   6.906  0.6756 -0.1180 -0.0257
 6197WAT     H125494   6.643   7.219   6.854 -0.4610 -1.4431 -1.5983
 6197WAT     H225495   6.571   7.140   6.939 -0.3367 -0.2304 -0.3430
 6197WAT    EPW25496   6.584   7.208   6.903  0.3160 -0.0709 -0.2273
 6198WAT      O25497   1.058   5.074   5.499  0.1522 -0.5242 -0.0647
 6198WAT     H125498   0.998   5.123   5.538  1.2642  1.6893 -0.9620
 6198WAT     H225499   1.097   5.033   5.565 -0.4862  0.2098  0.7880
 6198WAT    EPW25500   1.055   5.075   5.514  0.1780 -0.1950 -0.1659
 6199WAT      O25501   2.710   6.038   4.777  0.3654  0.1268  0.5069
 6199WAT     H125502   2.748   5.960   4.764  0.6305  0.2684  0.4237
 6199WAT     H225503   2.640   6.019   4.825  0.0187 -0.2600 -0.1365
 6199WAT    EPW25504   2.706   6.024   4.782 -0.1946  0.5219  0.4922
 6200WAT      O25505   4.738   4.369   1.701  0.2711 -0.0224  0.3378
 6200WAT     H125506   4.770   4.325   1.634  2.8115  0.7472  0.9352
 6200WAT     H225507   4.784   4.443   1.701 -1.7557  1.3317  1.1567
 6200WAT    EPW25508   4.749   4.374   1.691  0.2635  0.0899 -0.2368
 6201WAT      O25509   0.027   4.655   6.714 -0.2248 -0.2009 -0.2638
 6201WAT     H125510   0.051   4.689   6.637 -1.2628 -0.5362 -0.7553
 6201WAT     H225511  -0.039   4.706   6.739 -0.8614 -0.9745 -0.3211
 6201WAT    EPW25512   0.021   4.667   6.706  0.2915  0.5007  0.2047
 6202WAT      O25513   0.860   1.646   6.009 -0.2550 -0.6558 -0.3173
 6202WAT     H125514   0.787   1.663   5.965  0.4922  1.2036 -0.9570
 6202WAT     H225515   0.877   1.721   6.050  0.8087 -1.3317  0.5456
 6202WAT    EPW25516   0.852   1.660   6.008  0.1982  0.2718 -0.0239
 6203WAT      O25517   3.945   0.402   0.925 -0.0284 -0.2794  0.0873
 6203WAT     H125518   3.871   0.436   0.957 -1.1840 -1.8362 -0.7765
 6203WAT     H225519   3.946   0.429   0.842  0.5798  0.0338  0.1925
 6203WAT    EPW25520   3.934   0.411   0.918  0.4331 -0.5625 -0.0873
 6204WAT      O25521   7.403  -0.009   5.394 -0.4697 -0.2169 -0.2491
 6204WAT     H125522   7.362   0.049   5.444  0.6325 -0.2590  0.7491
 6204WAT     H225523   7.481  -0.017   5.432 -0.3201 -1.7844 -0.8154
 6204WAT    EPW25524   7.409  -0.001   5.407 -0.5241  0.0642 -0.0685
 6205WAT      O25525   0.732   0.697   6.627 -0.0463 -0.2194  0.2495
 6205WAT     H125526   0.737   0.784   6.622  2.0213 -0.3203 -0.6024
 6205WAT     H225527   0.814   0.671   6.611 -0.7103 -2.3509 -0.0165
 6205WAT    EPW25528   0.745   0.706   6.623  0.4081  0.8948  0.6247
 6206WAT      O25529   6.943   6.330   7.254 -0.5400 -0.0483  0.0827
 6206WAT     H125530   7.015   6.348   7.299 -0.6257 -1.0801  0.6576
 6206WAT     H225531   6.886   6.304   7.314 -1.3691  0.6242 -0.3783
 6206WAT    EPW25532   6.945   6.329   7.269  0.0031  0.9306  0.5408
 6207WAT      O25533   5.895   0.200   2.526 -0.0360  0.2019 -0.7471
 6207WAT     H125534   5.862   0.203   2.446 -1.5037 -3.2651 -0.4393
 6207WAT     H225535   5.860   0.269   2.566 -1.6563  0.3179 -2.2942
 6207WAT    EPW25536   5.885   0.211   2.520 -0.3012 -0.7396 -0.1133
 6208WAT      O25537   4.325   2.640   5.837 -0.0839  0.2592 -0.2484
 6208WAT     H125538   4.256   2.692   5.827 -0.6150 -0.4263 -0.2177
 6208WAT     H225539   4.291   2.560   5.832  0.7725 -0.0900 -0.6915
 6208WAT    EPW25540   4.310   2.636   5.835  0.1934 -0.1810 -0.3763
 6209WAT      O25541   7.269   2.171   0.731 -0.7442 -0.0570 -0.7318
 6209WAT     H125542   7.200   2.141   0.775 -0.4016  0.5710  0.2664
 6209WAT     H225543   7.250   2.254   0.715  0.1062  0.3471  0.2650
 6209WAT    EPW25544   7.256   2.179   0.735 -0.1135  0.1365  0.1224
 6210WAT      O25545   0.883   1.665   6.799  0.3090  0.4854  0.6587
 6210WAT     H125546   0.872   1.715   6.728 -0.1986  1.2614  1.2604
 6210WAT     H225547   0.811   1.616   6.801 -0.0230  0.9819  1.0337
 6210WAT    EPW25548   0.871   1.665   6.789 -0.1527 -0.6358 -0.1163
 6211WAT      O25549   5.273   0.172   2.122 -0.3606  0.3576  0.1675
 6211WAT     H125550   5.272   0.234   2.183 -1.4443 -0.0493  0.5845
 6211WAT     H225551   5.302   0.101   2.164 -1.2380  0.0431  0.2647
 6211WAT    EPW25552   5.277   0.171   2.137  0.4147 -0.7997 -0.3370
 6212WAT      O25553   0.774   2.208   4.641 -0.2140 -0.1703  0.1402
 6212WAT     H125554   0.795   2.261   4.575 -1.9052 -0.7832 -0.9426
 6212WAT     H225555   0.838   2.149   4.641 -0.1693 -0.1449 -0.9580
 6212WAT    EPW25556   0.787   2.207   4.631  0.3803  0.5572 -0.2706
 6213WAT      O25557   5.896   1.980   2.749 -0.5778  0.0173  0.1439
 6213WAT     H125558   5.962   1.985   2.806 -0.5360  0.1878  0.0790
 6213WAT     H225559   5.890   1.894   2.733 -1.3287 -0.1653  1.2709
 6213WAT    EPW25560   5.905   1.968   2.755 -0.1060  0.2070 -0.0502
 6214WAT      O25561   3.905   4.583   7.111  0.2460 -0.7769 -0.5058
 6214WAT     H125562   3.905   4.582   7.198  0.5074  1.8729 -0.3888
 6214WAT     H225563   3.972   4.636   7.091  0.2417 -1.3789 -2.3400
 6214WAT    EPW25564   3.915   4.591   7.121  0.1198  0.8285 -0.5934
 6215WAT      O25565   1.101   6.394   1.666 -0.4587  0.5779  0.1256
 6215WAT     H125566   1.158   6.334   1.694 -1.8184 -0.3956  0.9046
 6215WAT     H225567   1.084   6.440   1.738 -3.5061 -1.5463  0.9179
 6215WAT    EPW25568   1.107   6.392   1.681  0.6252  0.4180  0.1112
 6216WAT      O25569   7.657   1.217   1.916  0.1960 -0.4988  0.4044
 6216WAT     H125570   7.622   1.275   1.860 -1.6989 -1.1658  0.8286
 6216WAT     H225571   7.598   1.213   1.980  2.4619  0.5207  2.7238
 6216WAT    EPW25572   7.643   1.225   1.917 -0.0620  0.8400  0.0485
 6217WAT      O25573   4.076   1.339   4.221 -0.0156  0.1664 -0.0568
 6217WAT     H125574   4.000   1.360   4.183 -0.2863  2.2200  1.4413
 6217WAT     H225575   4.120   1.299   4.157 -1.8462  0.0580 -1.3494
 6217WAT    EPW25576   4.071   1.336   4.206  0.5582 -0.7555  0.4155
 6218WAT      O25577   3.800   4.089   7.255  0.0381 -0.4552 -0.1391
 6218WAT     H125578   3.869   4.143   7.261 -0.3971  0.0009  1.3238
 6218WAT     H225579   3.832   4.020   7.213  1.4516 -0.3393  0.6531
 6218WAT    EPW25580   3.815   4.087   7.249  0.2127 -0.8099  0.5122
 6219WAT      O25581   3.936   1.905   2.716  0.2789  0.3322  0.5794
 6219WAT     H125582   3.850   1.915   2.707  0.3916  0.6546 -0.3016
 6219WAT     H225583   3.944   1.838   2.771 -0.5316  0.4381  0.8331
 6219WAT    EPW25584   3.925   1.897   2.722  0.5075  0.4521 -0.4478
 6220WAT      O25585   0.045   0.226   6.828  1.0687 -0.1237 -0.4915
 6220WAT     H125586   0.007   0.226   6.906  1.6277 -0.9825 -0.2064
 6220WAT     H225587   0.117   0.273   6.840  1.8985 -1.4526 -0.0923
 6220WAT    EPW25588   0.050   0.233   6.841  0.0188  0.1279  0.8429
 6221WAT      O25589   6.785   5.735   2.511 -0.4444  0.0626  0.2813
 6221WAT     H125590   6.815   5.676   2.454 -0.7273 -0.0473  0.2436
 6221WAT     H225591   6.710   5.700   2.540 -0.3220  0.1333  0.6948
 6221WAT    EPW25592   6.778   5.721   2.507 -0.4419  0.6357 -0.1656
 6222WAT      O25593   2.716   1.287   1.622 -0.1224 -0.6339 -0.6079
 6222WAT     H125594   2.790   1.242   1.607  0.7919  0.8182 -0.6463
 6222WAT     H225595   2.658   1.247   1.571  0.5289 -2.0464 -0.3094
 6222WAT    EPW25596   2.719   1.274   1.612 -0.3151  0.8143 -0.1318
 6223WAT      O25597   1.619   4.842   0.142  0.8014 -0.2531  0.3939
 6223WAT     H125598   1.547   4.802   0.170  0.4377 -0.0854 -0.2820
 6223WAT     H225599   1.589   4.901   0.085  1.5188 -0.6041 -0.3627
 6223WAT    EPW25600   1.604   4.845   0.138  0.0169  0.1609  0.6821
 6224WAT      O25601   7.546   3.483   1.543 -0.3983  0.2502  0.6336
 6224WAT     H125602   7.611   3.521   1.586 -0.6064  0.4090  0.8120
 6224WAT     H225603   7.475   3.525   1.572 -0.5234  0.5095 -0.0322
 6224WAT    EPW25604   7.545   3.495   1.554 -0.5074 -0.0854  0.3398
 6225WAT      O25605   4.592   3.188   7.552  0.1764 -0.2501 -0.2684
 6225WAT     H125606   4.653   3.136   7.516 -0.3056 -0.6707 -0.4899
 6225WAT     H225607   4.601   3.173   7.638  1.4315  0.8669 -0.1643
 6225WAT    EPW25608   4.603   3.178   7.559 -0.6899 -0.3155  0.0891
 6226WAT      O25609   5.380   6.940   5.881 -0.4471  0.0659 -0.0161
 6226WAT     H125610   5.339   6.867   5.856 -0.0605  0.3102 -1.4774
 6226WAT     H225611   5.408   6.974   5.806  0.8487  0.8527  0.7808
 6226WAT    EPW25612   5.378   6.934   5.866 -0.4001  0.1922  0.3893
 6227WAT      O25613   0.053   6.644   4.914 -0.0106  0.3631 -0.4751
 6227WAT     H125614   0.089   6.570   4.942  0.4069 -0.3031 -2.5343
 6227WAT     H225615  -0.027   6.643   4.948  0.1920 -0.7455  0.0133
 6227WAT    EPW25616   0.047   6.633   4.923  0.1661  0.0674  0.0095
 6228WAT      O25617   6.440   1.454   5.778  0.2254 -0.0318  0.0690
 6228WAT     H125618   6.414   1.371   5.778  0.1354 -0.0963 -2.7946
 6228WAT     H225619   6.471   1.466   5.697 -0.8021  3.0415  0.0035
 6228WAT    EPW25620   6.441   1.444   5.766 -0.7079 -0.4548 -0.5615
 6229WAT      O25621   2.182   3.105   4.922  0.1973  0.9534 -0.0570
 6229WAT     H125622   2.256   3.087   4.964  0.4479  2.2391  0.1045
 6229WAT     H225623   2.130   3.137   4.985 -0.5002  0.0728 -0.1681
 6229WAT    EPW25624   2.185   3.107   4.937 -0.1803  0.3458 -0.4656
 6230WAT      O25625   5.587   1.962   3.071 -0.0708  0.0789 -0.1225
 6230WAT     H125626   5.630   2.024   3.026 -0.5456  1.8799  1.7463
 6230WAT     H225627   5.650   1.916   3.109  0.2596  0.0826 -0.6523
 6230WAT    EPW25628   5.603   1.964   3.070 -0.0425 -0.4974  0.3045
 6231WAT      O25629   5.898   5.432   5.687 -0.4851  1.0178 -0.1848
 6231WAT     H125630   5.923   5.438   5.604 -1.6176 -0.7131 -0.6969
 6231WAT     H225631   5.934   5.358   5.715  1.3691  2.4375  1.4760
 6231WAT    EPW25632   5.907   5.422   5.679 -0.3781  0.2416 -0.1038
 6232WAT      O25633   4.509   1.220   6.798  0.2656 -0.0352  0.6959
 6232WAT     H125634   4.516   1.267   6.871 -0.3079 -0.7371  1.2179
 6232WAT     H225635   4.573   1.251   6.747 -0.9460  2.3331  0.4455
 6232WAT    EPW25636   4.519   1.232   6.801 -0.2440  0.6561 -0.0539
 6233WAT      O25637   0.639   1.491   2.595 -0.3465 -0.4001  0.4489
 6233WAT     H125638   0.688   1.483   2.523 -2.8092  0.7752 -1.5448
 6233WAT     H225639   0.560   1.465   2.569 -1.7593  1.7836  2.1755
 6233WAT    EPW25640   0.634   1.486   2.580 -0.1457 -0.1187 -1.2071
 6234WAT      O25641   2.667   7.107   1.316 -0.1505 -0.1638  0.1890
 6234WAT     H125642   2.752   7.103   1.296 -0.0606  1.8935 -0.0166
 6234WAT     H225643   2.627   7.094   1.240  0.0147  0.0066  0.0721
 6234WAT    EPW25644   2.674   7.104   1.302 -0.0172 -0.3793 -0.0629
 6235WAT      O25645   1.608   4.540   1.108  0.3941 -0.0700 -0.6784
 6235WAT     H125646   1.667   4.600   1.088 -1.0779  1.4630 -0.6699
 6235WAT     H225647   1.532   4.581   1.096 -0.6593 -1.3908  0.9275
 6235WAT    EPW25648   1.605   4.555   1.103 -0.2456  0.1501  0.0520
 6236WAT      O25649   7.124   5.806   4.168 -0.0962  0.1586 -0.8672
 6236WAT     H125650   7.167   5.882   4.158  0.4565  0.1413  1.0489
 6236WAT     H225651   7.184   5.746   4.146  0.0210  0.2134 -0.6955
 6236WAT    EPW25652   7.139   5.808   4.163  0.5709 -0.3086  0.3622
 6237WAT      O25653   6.239   6.800   6.215  0.1595 -0.3143 -0.3321
 6237WAT     H125654   6.280   6.847   6.154 -1.7321 -0.4215 -1.7764
 6237WAT     H225655   6.230   6.856   6.281  1.0829  0.2194 -0.6362
 6237WAT    EPW25656   6.244   6.815   6.216 -0.0114 -0.3024  0.2738
 6238WAT      O25657   2.594   5.076   1.114 -0.4344  0.4066  0.3153
 6238WAT     H125658   2.565   5.036   1.186  1.5252  0.2881  1.1193
 6238WAT     H225659   2.559   5.030   1.049  0.9110 -2.0639  1.2190
 6238WAT    EPW25660   2.585   5.063   1.115  1.0636 -0.2262 -0.1093
 6239WAT      O25661   6.886   6.856   7.504 -0.0319 -0.2962 -0.3086
 6239WAT     H125662   6.966   6.884   7.486 -0.4846  0.1484 -1.8090
 6239WAT     H225663   6.835   6.924   7.484 -0.8053 -0.6623  0.3481
 6239WAT    EPW25664   6.890   6.870   7.498  0.6032 -0.3305  0.0203
 6240WAT      O25665   6.756   2.500   5.269 -0.1094  0.5734  0.8888
 6240WAT     H125666   6.705   2.449   5.221  1.2309  0.5667 -0.6040
 6240WAT     H225667   6.780   2.563   5.213  1.0137  0.9063  1.7139
 6240WAT    EPW25668   6.752   2.502   5.254 -0.2873 -0.3551 -0.2485
 6241WAT      O25669   5.201   4.304   2.745 -0.3093  0.4025 -0.1475
 6241WAT     H125670   5.162   4.228   2.728  0.3388 -0.1085  0.5578
 6241WAT     H225671   5.177   4.321   2.828 -0.7265  1.1501 -0.4069
 6241WAT    EPW25672   5.192   4.295   2.755  0.0620  0.0989 -0.0810
 6242WAT      O25673   7.597   0.271   3.548 -0.8105  0.0546 -0.4480
 6242WAT     H125674   7.550   0.295   3.479 -0.8132  0.9935 -0.1372
 6242WAT     H225675   7.662   0.225   3.514 -1.9711 -1.3260 -0.8753
 6242WAT    EPW25676   7.600   0.268   3.533  0.2439 -0.1498 -0.0110
 6243WAT      O25677   0.811   4.289   6.899 -0.4143  0.5866 -0.4149
 6243WAT     H125678   0.801   4.284   6.812  0.5342 -0.4669 -0.5027
 6243WAT     H225679   0.861   4.360   6.910 -0.8400  0.9304 -0.7027
 6243WAT    EPW25680   0.817   4.298   6.887  0.1736  0.4853  0.6060
 6244WAT      O25681   6.907   7.091   5.995 -0.0220 -0.2504 -0.0251
 6244WAT     H125682   6.933   7.173   5.986  0.5380 -0.5516 -1.4455
 6244WAT     H225683   6.933   7.053   5.920 -0.6822 -1.5975  0.3987
 6244WAT    EPW25684   6.915   7.097   5.982  0.4969  0.0825  0.3325
 6245WAT      O25685   6.356   0.355   0.875 -0.0446 -0.1809 -0.1534
 6245WAT     H125686   6.427   0.376   0.920  0.4587 -0.3458 -0.8628
 6245WAT     H225687   6.324   0.432   0.849  0.2578 -0.1444 -0.4176
 6245WAT    EPW25688   6.362   0.369   0.878 -0.3367  0.1030  1.1536
 6246WAT      O25689   6.041   6.374   0.720 -0.4151  0.3030 -0.1294
 6246WAT     H125690   6.115   6.405   0.756 -1.3402  0.8585  1.3945
 6246WAT     H225691   6.056   6.380   0.635  1.5381 -0.1596  0.1249
 6246WAT    EPW25692   6.054   6.379   0.713  0.1119  0.2453 -0.3452
 6247WAT      O25693   6.981   7.252   7.341  0.5443  0.4551 -0.0891
 6247WAT     H125694   6.933   7.179   7.334 -0.2441  1.0884 -1.8252
 6247WAT     H225695   7.045   7.240   7.283  2.0313  0.0025  1.5857
 6247WAT    EPW25696   6.983   7.240   7.331  0.1253 -0.3170  0.0854
 6248WAT      O25697   2.557   1.136   6.852  0.3643  0.1035  0.0369
 6248WAT     H125698   2.565   1.185   6.780 -0.3930 -0.4469 -0.4276
 6248WAT     H225699   2.603   1.064   6.834  2.2550  0.9613  1.0686
 6248WAT    EPW25700   2.565   1.133   6.839  0.4572  0.0505 -0.3606
 6249WAT      O25701   1.964   5.768   6.887  0.8400 -0.2771 -0.0027
 6249WAT     H125702   1.994   5.769   6.969  0.2860  1.6729  0.2218
 6249WAT     H225703   2.032   5.738   6.841  1.8476  0.4881  0.9429
 6249WAT    EPW25704   1.979   5.764   6.892 -0.2013 -0.3067 -0.5790
 6250WAT      O25705   5.085   5.198   3.063 -0.0848  0.4627 -0.1203
 6250WAT     H125706   5.111   5.247   2.995 -0.4913  1.2540  0.2782
 6250WAT     H225707   5.153   5.146   3.078 -0.7485 -1.3095 -2.5309
 6250WAT    EPW25708   5.099   5.198   3.055 -0.3873  0.2405 -0.2573
 6251WAT      O25709   2.080   6.406   6.469  0.0645 -0.1174  0.2656
 6251WAT     H125710   2.098   6.487   6.496  2.3710  0.4093 -2.4633
 6251WAT     H225711   2.093   6.357   6.540  5.6270  1.1458  0.5052
 6251WAT    EPW25712   2.084   6.410   6.484 -0.0108 -0.4612  0.6890
 6252WAT      O25713   2.835   4.643   5.501  0.3984  0.5561  0.3993
 6252WAT     H125714   2.900   4.700   5.491  1.0918 -0.1567  0.7575
 6252WAT     H225715   2.869   4.567   5.475 -0.7469  0.4090 -0.8147
 6252WAT    EPW25716   2.849   4.640   5.496 -0.0015 -0.2036  0.1901
 6253WAT      O25717   3.367   2.165   2.780  0.0139  0.2631 -0.0800
 6253WAT     H125718   3.362   2.246   2.814 -1.0866 -0.1262  0.7495
 6253WAT     H225719   3.452   2.157   2.760 -0.1776  2.3870 -2.1898
 6253WAT    EPW25720   3.379   2.176   2.782 -0.2859  0.3983  0.0582
 6254WAT      O25721   1.362   5.186   6.007 -0.7124  0.3865  0.2068
 6254WAT     H125722   1.320   5.254   6.042 -1.6271 -0.6995  1.3057
 6254WAT     H225723   1.307   5.159   5.944  0.3891  1.6072 -1.3676
 6254WAT    EPW25724   1.348   5.192   6.003  0.1522 -0.1206  0.1369
 6255WAT      O25725   4.828   1.113   0.481  0.0569 -0.5398 -0.2537
 6255WAT     H125726   4.840   1.027   0.490  2.1536 -0.8191 -3.8069
 6255WAT     H225727   4.905   1.147   0.504 -0.2775  0.2395 -0.2476
 6255WAT    EPW25728   4.841   1.105   0.486  0.3031 -0.0893 -0.0505
 6256WAT      O25729   1.546   5.380   5.447  0.1271 -0.1644 -0.3865
 6256WAT     H125730   1.597   5.364   5.516 -1.2659 -0.2794  0.6519
 6256WAT     H225731   1.469   5.347   5.470 -0.9224  1.6408 -1.1643
 6256WAT    EPW25732   1.542   5.373   5.460  0.6777 -0.1199 -0.6586
 6257WAT      O25733   0.851   3.512   3.981  0.2584 -0.2300 -0.3381
 6257WAT     H125734   0.822   3.459   3.919 -0.1181 -0.1556 -0.2255
 6257WAT     H225735   0.854   3.461   4.052 -0.3730 -0.0385 -0.1635
 6257WAT    EPW25736   0.847   3.497   3.983  0.0796 -0.2450  0.1429
 6258WAT      O25737   4.242   5.017   3.329 -0.0820 -0.3071  0.0479
 6258WAT     H125738   4.310   5.053   3.288 -0.0054  2.1996  2.0635
 6258WAT     H225739   4.270   4.937   3.350  1.4711 -0.0510 -0.8730
 6258WAT    EPW25740   4.256   5.011   3.326  0.3039  0.0089  0.5796
 6259WAT      O25741   3.691   4.627   1.257 -0.0937  0.3511  0.3020
 6259WAT     H125742   3.773   4.618   1.231  0.1822  1.2399  0.8115
 6259WAT     H225743   3.646   4.633   1.182 -0.2453 -3.7992 -0.1375
 6259WAT    EPW25744   3.696   4.627   1.242 -0.4821 -0.4670  0.1103
 6260WAT      O25745   0.950   5.854   0.974 -0.4614 -0.2900 -0.1248
 6260WAT     H125746   0.983   5.804   0.911  1.2577  1.7074 -0.9264
 6260WAT     H225747   0.901   5.912   0.930 -3.8748 -2.1161  0.8958
 6260WAT    EPW25748   0.947   5.855   0.958 -0.2372  0.4003  0.6519
 6261WAT      O25749   1.632   2.934   7.485 -0.1475  0.1132 -0.3764
 6261WAT     H125750   1.687   2.997   7.508  3.1516 -2.8825  0.8294
 6261WAT     H225751   1.566   2.943   7.541  0.6897  1.8535  0.3948
 6261WAT    EPW25752   1.630   2.945   7.497 -0.1988 -0.5610  0.2858
 6262WAT      O25753   5.531   3.313   1.271  0.6478 -0.2505 -0.0054
 6262WAT     H125754   5.602   3.278   1.236  1.0792  0.2877  0.3121
 6262WAT     H225755   5.516   3.263   1.341 -0.4673 -1.5954 -1.1467
 6262WAT    EPW25756   5.539   3.300   1.276 -0.1589  0.9958 -0.1692
 6263WAT      O25757   0.890   2.866   7.425  0.2324 -0.8084  0.6032
 6263WAT     H125758   0.815   2.864   7.381  0.1322  1.3438  0.5716
 6263WAT     H225759   0.888   2.792   7.472 -0.8744 -1.8432 -0.9756
 6263WAT    EPW25760   0.879   2.855   7.426 -0.1098  0.1441  0.4674
 6264WAT      O25761   3.274   4.727   5.986  0.2652  0.3744  0.1613
 6264WAT     H125762   3.344   4.685   6.018 -0.0358  1.7591  2.9115
 6264WAT     H225763   3.297   4.743   5.903  2.4936 -0.6489  0.4858
 6264WAT    EPW25764   3.288   4.723   5.978 -0.8154  0.5715  0.4678
 6265WAT      O25765   2.277   1.564   6.093  0.0899  0.3246  0.3644
 6265WAT     H125766   2.264   1.496   6.146  0.2766  0.7069  0.9067
 6265WAT     H225767   2.299   1.527   6.017  1.9038 -0.2065  1.0954
 6265WAT    EPW25768   2.278   1.549   6.090 -0.4216  0.9924  0.4660
 6266WAT      O25769   2.586   4.701   1.972  0.2531  0.1223 -0.2336
 6266WAT     H125770   2.565   4.765   1.917  0.1949  1.2183  1.0110
 6266WAT     H225771   2.511   4.681   2.010  0.5066  0.3341  0.4004
 6266WAT    EPW25772   2.572   4.708   1.970 -0.4394  0.0182  0.7061
 6267WAT      O25773   5.476   1.786   5.915 -0.0439  0.0902  0.2742
 6267WAT     H125774   5.389   1.788   5.904  0.1748 -0.4846 -2.2325
 6267WAT     H225775   5.499   1.869   5.908 -0.3090  0.1366 -0.0748
 6267WAT    EPW25776   5.466   1.798   5.912  0.1074  0.1696 -0.2374
 6268WAT      O25777   6.314   7.380   6.081 -0.0480  0.0694 -0.0839
 6268WAT     H125778   6.315   7.446   6.138 -0.0500  0.2640 -0.3098
 6268WAT     H225779   6.349   7.414   6.009 -1.0154  0.1372 -0.5431
 6268WAT    EPW25780   6.319   7.395   6.079  0.1690  0.0601 -0.4245
 6269WAT      O25781   3.459   3.737   5.907 -0.1670 -0.2751 -0.0335
 6269WAT     H125782   3.532   3.781   5.927  0.5910 -1.3791 -0.2851
 6269WAT     H225783   3.486   3.679   5.848 -1.2302 -0.7830 -0.0313
 6269WAT    EPW25784   3.474   3.735   5.901 -0.0983 -0.6534 -0.8819
 6270WAT      O25785   3.247   6.809   2.700  0.0227  1.0288 -0.4511
 6270WAT     H125786   3.165   6.784   2.684 -0.3182  0.7955  1.4634
 6270WAT     H225787   3.275   6.837   2.622 -1.1879 -0.7622 -1.6097
 6270WAT    EPW25788   3.239   6.810   2.686  0.0109  0.0812  0.1514
 6271WAT      O25789   0.140   5.325   2.794  0.3125  0.1608  0.3390
 6271WAT     H125790   0.059   5.357   2.792  1.4301  3.4032  0.8658
 6271WAT     H225791   0.147   5.292   2.874 -0.7405 -1.1271 -0.0534
 6271WAT    EPW25792   0.129   5.325   2.805  0.7576  0.7170 -0.1530
 6272WAT      O25793   5.049   5.084   7.374  0.2510  0.6358  0.2076
 6272WAT     H125794   5.084   5.161   7.396 -1.7724  1.5536  0.4100
 6272WAT     H225795   5.098   5.059   7.306  2.8091  0.6092  1.8960
 6272WAT    EPW25796   5.062   5.092   7.367  0.1298 -0.4765 -0.2993
 6273WAT      O25797   6.157   4.208   2.950  0.4759  0.1721 -0.4331
 6273WAT     H125798   6.073   4.207   2.972 -0.2370 -1.6201 -2.9328
 6273WAT     H225799   6.182   4.289   2.970 -1.8723  0.8074  0.2043
 6273WAT    EPW25800   6.148   4.220   2.956 -0.3245  0.0481  0.0784
 6274WAT      O25801   1.167   5.844   1.890  0.3940 -0.7961 -0.3608
 6274WAT     H125802   1.254   5.846   1.900  0.1729  0.4556  1.9277
 6274WAT     H225803   1.146   5.927   1.873 -0.3551 -1.1195 -1.0860
 6274WAT    EPW25804   1.177   5.856   1.889 -1.0099 -0.2904  0.0351
 6275WAT      O25805   7.572   4.466   0.994 -0.4195  0.1024  0.2880
 6275WAT     H125806   7.493   4.461   0.958 -0.3615  2.0387 -0.2234
 6275WAT     H225807   7.626   4.449   0.927 -0.3624 -1.8197  0.7675
 6275WAT    EPW25808   7.569   4.462   0.979 -0.2536  0.3146  1.0001
 6276WAT      O25809   5.522   3.489   3.896 -0.3067  0.1942 -0.5256
 6276WAT     H125810   5.447   3.447   3.911  1.0429 -1.6891  1.6747
 6276WAT     H225811   5.575   3.427   3.865  0.5639  1.3554 -1.5025
 6276WAT    EPW25812   5.519   3.474   3.893 -1.1123  0.3446  0.3592
 6277WAT      O25813   2.141   1.577   4.543 -0.5676 -0.2614  0.4478
 6277WAT     H125814   2.074   1.523   4.528  0.4647 -1.3288 -0.5571
 6277WAT     H225815   2.106   1.656   4.529 -1.7399 -0.7461  0.4752
 6277WAT    EPW25816   2.126   1.581   4.538  0.1438  0.0113 -0.2132
 6278WAT      O25817   5.200   6.832   3.138 -0.2524  0.0301 -0.2296
 6278WAT     H125818   5.210   6.854   3.222  0.7833  0.4201 -0.4442
 6278WAT     H225819   5.279   6.802   3.115 -0.2305  0.8579 -1.3247
 6278WAT    EPW25820   5.213   6.831   3.147 -0.2560 -0.2446  0.6659
 6279WAT      O25821   7.216   1.646   6.726  0.2373  0.1190 -0.4256
 6279WAT     H125822   7.185   1.662   6.806 -2.5285  1.9736 -1.7147
 6279WAT     H225823   7.149   1.607   6.685  2.0232 -1.9837 -1.5517
 6279WAT    EPW25824   7.201   1.643   6.732 -0.6236  0.2663  0.0086
 6280WAT      O25825   6.427   1.613   7.170  0.5589 -0.1408 -0.5044
 6280WAT     H125826   6.468   1.679   7.130 -1.9421  0.3504 -2.5003
 6280WAT     H225827   6.349   1.647   7.190  0.1122 -1.7860  0.7358
 6280WAT    EPW25828   6.422   1.628   7.167 -0.2348 -0.5961  0.2822
 6281WAT      O25829   5.040   5.715   5.641 -0.4155  0.6731 -0.5819
 6281WAT     H125830   4.955   5.699   5.643 -0.4750  1.0094  0.5310
 6281WAT     H225831   5.045   5.798   5.614 -0.4101  0.4691 -1.2024
 6281WAT    EPW25832   5.028   5.725   5.638  0.1019  0.3160  0.4795
 6282WAT      O25833   1.975   7.376   3.699  0.3416  0.3737 -0.2045
 6282WAT     H125834   1.994   7.351   3.781  0.9938  0.4544 -0.3206
 6282WAT     H225835   2.053   7.402   3.668  0.0749  0.4511 -0.8124
 6282WAT    EPW25836   1.989   7.376   3.707  0.1506  0.5302 -0.2899
 6283WAT      O25837   3.481   1.834   3.765 -0.4823 -0.2698 -0.7320
 6283WAT     H125838   3.495   1.895   3.706  0.7724  0.1659 -0.0162
 6283WAT     H225839   3.495   1.759   3.722 -0.5369 -0.0040 -1.2141
 6283WAT    EPW25840   3.485   1.832   3.750  0.0340 -0.0532  0.2937
 6284WAT      O25841   5.855   4.182   0.468  0.0780 -0.4385 -0.6522
 6284WAT     H125842   5.845   4.096   0.463  1.0288 -0.5789 -0.2702
 6284WAT     H225843   5.911   4.193   0.534  1.9490  0.3052 -2.2718
 6284WAT    EPW25844   5.862   4.171   0.477  0.2251  0.0307  0.2664
 6285WAT      O25845   2.716   0.944   3.389 -0.4173  0.2661 -0.3295
 6285WAT     H125846   2.736   0.865   3.357  0.7058  0.7606 -0.9042
 6285WAT     H225847   2.781   0.961   3.444 -0.6191  0.8113 -0.2520
 6285WAT    EPW25848   2.728   0.935   3.392 -0.4967  0.0515  0.0126
 6286WAT      O25849   5.786   7.183   2.636  0.1059  0.1441 -0.1637
 6286WAT     H125850   5.706   7.155   2.655 -0.7624  1.7894 -1.1864
 6286WAT     H225851   5.777   7.221   2.558  2.4898 -2.1158 -1.7271
 6286WAT    EPW25852   5.773   7.184   2.627 -0.2029  0.2423 -0.7300
 6287WAT      O25853   6.899   6.037   5.028 -0.2589  0.2100 -0.5533
 6287WAT     H125854   6.846   5.981   5.069  1.3574 -2.4158 -1.7834
 6287WAT     H225855   6.963   6.051   5.086 -1.0229  1.4886  0.0339
 6287WAT    EPW25856   6.901   6.031   5.043  0.6552  0.0404  0.2670
 6288WAT      O25857   6.795   2.618   7.136 -0.0224 -0.3853  0.1670
 6288WAT     H125858   6.722   2.643   7.095  0.1956 -1.7566 -1.1220
 6288WAT     H225859   6.767   2.564   7.198 -0.1374 -0.5580 -0.0352
 6288WAT    EPW25860   6.780   2.614   7.139 -0.3001  0.1980  0.6255
 6289WAT      O25861   2.901   2.861   0.912  0.4553  0.2631  0.4837
 6289WAT     H125862   2.876   2.924   0.857  0.3434 -0.3176 -0.1372
 6289WAT     H225863   2.833   2.853   0.966 -1.4982 -2.2983 -2.0423
 6289WAT    EPW25864   2.887   2.869   0.912 -0.1385  0.5817  0.3500
 6290WAT      O25865   2.469   3.456   6.365 -0.3230 -0.3046 -0.2553
 6290WAT     H125866   2.543   3.434   6.325 -1.1004 -3.5668 -0.2675
 6290WAT     H225867   2.471   3.408   6.438 -2.1159 -0.0177  0.0270
 6290WAT    EPW25868   2.480   3.445   6.370 -0.7631  0.5047  0.0659
 6291WAT      O25869   2.765   5.163   4.942  0.2449 -0.1113 -0.2197
 6291WAT     H125870   2.784   5.078   4.931  0.6590 -0.2711  1.3666
 6291WAT     H225871   2.842   5.197   4.965 -0.3743  0.1654  1.6486
 6291WAT    EPW25872   2.779   5.155   4.944  0.4699  0.0173  0.0022
 6292WAT      O25873   6.547   0.780   7.107 -0.2439  0.3048 -0.1131
 6292WAT     H125874   6.497   0.844   7.076 -2.0070  0.4071  2.6507
 6292WAT     H225875   6.619   0.821   7.132 -1.2355  1.2329  1.3685
 6292WAT    EPW25876   6.550   0.795   7.106  0.7146 -0.2614  0.3204
 6293WAT      O25877   1.728   0.095   1.282 -0.4822  0.3111  0.8356
 6293WAT     H125878   1.641   0.084   1.277 -0.3596 -0.0101 -1.5563
 6293WAT     H225879   1.749   0.051   1.354 -1.9423 -2.4653 -0.2692
 6293WAT    EPW25880   1.718   0.086   1.292  0.8033 -0.0682  0.3351
 6294WAT      O25881   3.410   5.601   3.682  0.0168  0.2893  0.3648
 6294WAT     H125882   3.460   5.543   3.724 -0.8639 -1.2606 -0.6404
 6294WAT     H225883   3.438   5.597   3.600  1.2014  2.7224  0.5685
 6294WAT    EPW25884   3.421   5.592   3.676 -0.0331 -0.1147  0.6473
 6295WAT      O25885   5.092   4.609   3.659 -0.5636 -0.2052 -0.7130
 6295WAT     H125886   5.110   4.652   3.733 -0.9161  1.3201 -1.4731
 6295WAT     H225887   5.170   4.596   3.623 -0.2917 -1.8308  0.3378
 6295WAT    EPW25888   5.106   4.613   3.665  0.1473 -0.3478 -0.7763
 6296WAT      O25889   4.890   6.045   3.171  0.1881  0.1958  0.7655
 6296WAT     H125890   4.834   6.106   3.143  0.6701  0.3787  0.1664
 6296WAT     H225891   4.842   5.998   3.226 -1.0610 -0.6336 -0.9065
 6296WAT    EPW25892   4.874   6.047   3.175  0.3049  0.4668  0.0449
 6297WAT      O25893   6.589   0.923   6.806  0.6500 -0.8738 -0.1641
 6297WAT     H125894   6.654   0.922   6.749  0.3313 -1.5013 -0.5214
 6297WAT     H225895   6.557   0.842   6.804  0.0030 -0.6412  0.1679
 6297WAT    EPW25896   6.594   0.911   6.797  0.0949 -0.0894  0.3479
 6298WAT      O25897   2.222   4.304   6.397 -0.4423 -0.4031  0.2262
 6298WAT     H125898   2.270   4.234   6.416  1.0076  0.8260  1.3513
 6298WAT     H225899   2.275   4.351   6.345 -0.5227  0.8079  1.1925
 6298WAT    EPW25900   2.237   4.301   6.392  0.1868 -0.6127 -0.5415
 6299WAT      O25901   7.488   2.611   0.953 -0.4279  0.4369 -0.3811
 6299WAT     H125902   7.511   2.527   0.957  0.1339  0.6375  1.7701
 6299WAT     H225903   7.559   2.651   0.922  0.0875  0.3433  0.6383
 6299WAT    EPW25904   7.502   2.605   0.949 -0.1224  0.2691 -0.9319
 6300WAT      O25905   3.432   0.862   3.175  0.4398  0.7645  0.1199
 6300WAT     H125906   3.358   0.836   3.138  1.9499 -0.6481 -2.1331
 6300WAT     H225907   3.454   0.934   3.131  1.2851  0.1550 -0.4889
 6300WAT    EPW25908   3.425   0.869   3.163 -0.0668 -0.3482  0.0961
 6301WAT      O25909   6.622   0.202   2.511  0.7447 -0.0080 -0.0996
 6301WAT     H125910   6.612   0.179   2.427  0.0924 -1.0713  0.2534
 6301WAT     H225911   6.591   0.134   2.555  0.1049  0.9704  1.0192
 6301WAT    EPW25912   6.616   0.189   2.505 -0.1426  0.1843  0.4674
 6302WAT      O25913   1.593   2.428   5.226 -0.2853  0.6258 -0.2119
 6302WAT     H125914   1.540   2.382   5.277 -0.9365 -1.0535 -2.2288
 6302WAT     H225915   1.574   2.399   5.146  3.4935  0.0755 -1.1201
 6302WAT    EPW25916   1.582   2.417   5.221  0.0608  0.5366  0.2402
 6303WAT      O25917   6.920   3.548   4.493  0.5098 -0.0443 -0.1955
 6303WAT     H125918   6.895   3.466   4.511 -1.0161  0.2006 -0.9878
 6303WAT     H225919   6.961   3.541   4.417 -1.5519  0.1634 -1.3927
 6303WAT    EPW25920   6.922   3.535   4.485 -0.3191  0.0183 -0.5527
 6304WAT      O25921   3.272   1.408   1.158 -0.0092 -0.4335  0.6328
 6304WAT     H125922   3.302   1.488   1.176  0.6598 -0.7291  0.8266
 6304WAT     H225923   3.330   1.377   1.101 -2.5696  0.9175 -3.2317
 6304WAT    EPW25924   3.285   1.416   1.152 -0.1827 -0.2500  0.3987
 6305WAT      O25925   5.245   5.565   2.777 -0.5768 -0.3288 -0.0131
 6305WAT     H125926   5.265   5.514   2.709 -0.0343 -1.0689  0.6700
 6305WAT     H225927   5.207   5.509   2.833 -0.5866  0.1623  0.4749
 6305WAT    EPW25928   5.242   5.549   2.775 -0.2089 -0.1296 -0.1915
 6306WAT      O25929   2.554   4.743   5.073 -0.0545 -0.3656  0.2326
 6306WAT     H125930   2.640   4.747   5.087  0.2948 -0.5711 -1.6116
 6306WAT     H225931   2.545   4.679   5.014 -1.4452 -0.2091  0.2279
 6306WAT    EPW25932   2.565   4.734   5.066 -0.1740  0.1118 -0.3919
 6307WAT      O25933   2.287   2.485   6.675 -0.2358  0.4181 -0.0826
 6307WAT     H125934   2.270   2.502   6.591  0.4107 -2.0266 -0.7792
 6307WAT     H225935   2.228   2.532   6.718  1.0411  3.8538 -1.7103
 6307WAT    EPW25936   2.276   2.495   6.669 -0.2123 -0.4563  0.3896
 6308WAT      O25937   3.357   0.583   2.273  0.1630  0.3264  0.0971
 6308WAT     H125938   3.383   0.548   2.198  0.5209  1.0309 -0.1094
 6308WAT     H225939   3.270   0.577   2.269  0.1880  0.1729 -0.2724
 6308WAT    EPW25940   3.348   0.577   2.262 -0.7152  0.7386  0.1140
 6309WAT      O25941   0.386   0.695   3.544  0.9059 -0.2014  0.4180
 6309WAT     H125942   0.433   0.632   3.582 -0.6868 -0.3451  2.2984
 6309WAT     H225943   0.349   0.656   3.476  1.9247 -0.5934  0.0735
 6309WAT    EPW25944   0.387   0.680   3.540 -0.6589 -0.3046 -0.1830
 6310WAT      O25945   5.413   1.543   4.118  0.4044 -0.1493 -0.1526
 6310WAT     H125946   5.463   1.609   4.090 -0.5932  0.3670 -0.8037
 6310WAT     H225947   5.356   1.582   4.171  0.1700 -0.5808 -0.0812
 6310WAT    EPW25948   5.412   1.558   4.121  0.1027 -0.1398 -0.5825
 6311WAT      O25949   3.602   4.400   5.937  0.5159  0.2469 -0.1442
 6311WAT     H125950   3.682   4.431   5.920  0.0369  1.1116 -0.8958
 6311WAT     H225951   3.617   4.338   5.998  1.5740  1.5379  0.9896
 6311WAT    EPW25952   3.616   4.395   5.944  0.3713 -0.4132 -0.7548
 6312WAT      O25953   4.612   3.319   6.388  0.1940  0.1495 -0.4420
 6312WAT     H125954   4.629   3.234   6.375 -0.2012  0.1437 -0.9243
 6312WAT     H225955   4.592   3.348   6.308 -2.5981  0.0510  0.1197
 6312WAT    EPW25956   4.612   3.311   6.374 -0.2539  0.2261  0.1907
 6313WAT      O25957   4.093   4.297   1.952 -0.1218 -0.0595  0.1681
 6313WAT     H125958   4.009   4.301   1.977  0.1070  2.0946  0.8230
 6313WAT     H225959   4.107   4.212   1.939 -2.6676 -0.3881 -0.9241
 6313WAT    EPW25960   4.083   4.285   1.954  0.1487 -0.0994  0.1138
 6314WAT      O25961   4.993   2.958   4.278 -0.1059 -0.0089  0.1159
 6314WAT     H125962   4.965   3.009   4.343 -0.7950 -0.5399  0.2509
 6314WAT     H225963   4.937   2.975   4.213  0.7101  0.6866 -0.4442
 6314WAT    EPW25964   4.981   2.968   4.278 -0.3806  0.3358 -0.0392
 6315WAT      O25965   2.605   5.703   6.916 -0.6880  0.3841  0.7504
 6315WAT     H125966   2.567   5.710   6.838  1.1134  0.2583 -0.1890
 6315WAT     H225967   2.611   5.786   6.943  0.5120  0.6516 -0.2180
 6315WAT    EPW25968   2.600   5.716   6.908 -0.1954 -0.4112 -0.5885
 6316WAT      O25969   1.230   2.864   1.626  0.5266 -0.9471 -0.1682
 6316WAT     H125970   1.188   2.929   1.667  0.8947  0.4539 -1.8642
 6316WAT     H225971   1.313   2.875   1.650  0.4863 -1.2303  0.0979
 6316WAT    EPW25972   1.236   2.876   1.635  0.0720 -0.1415  0.7753
 6317WAT      O25973   7.363   6.014   6.474 -0.4848  0.6969 -0.1946
 6317WAT     H125974   7.280   6.032   6.452 -0.3872  0.7144 -0.5493
 6317WAT     H225975   7.408   6.036   6.403 -0.2496  0.0164 -0.2642
 6317WAT    EPW25976   7.357   6.020   6.460 -0.5706  0.5165  0.5646
 6318WAT      O25977   0.532   4.523   1.399 -0.1236  0.0120 -0.1082
 6318WAT     H125978   0.600   4.477   1.367 -0.1852  0.0232 -0.2538
 6318WAT     H225979   0.542   4.515   1.486  0.8083  1.0930 -0.0962
 6318WAT    EPW25980   0.544   4.515   1.407  0.0237  0.0808  0.3611
 6319WAT      O25981   6.208   2.040   7.274  0.3656  0.4355  0.2729
 6319WAT     H125982   6.269   2.062   7.215 -0.3891  0.4550 -0.5285
 6319WAT     H225983   6.133   2.068   7.238 -0.4218 -1.6976  0.0574
 6319WAT    EPW25984   6.206   2.047   7.260  0.1191 -0.1331 -0.5723
 6320WAT      O25985   5.774   3.533   4.871  0.3581  0.0898  0.2036
 6320WAT     H125986   5.787   3.617   4.854 -1.3850  0.2952 -0.2837
 6320WAT     H225987   5.849   3.508   4.909  1.2860  1.5907 -0.5482
 6320WAT    EPW25988   5.787   3.541   4.874  0.5308 -0.0314 -0.0440
 6321WAT      O25989   2.244   4.425   0.639  0.2581  0.3792 -0.1600
 6321WAT     H125990   2.231   4.349   0.679  2.0493 -0.9642 -1.9603
 6321WAT     H225991   2.197   4.481   0.687  0.7356 -1.4080  2.6496
 6321WAT    EPW25992   2.235   4.422   0.652 -0.0289  0.3547  0.1528
 6322WAT      O25993   7.038   1.152   6.840 -1.0919  0.0709 -0.0785
 6322WAT     H125994   7.034   1.068   6.863 -0.2566  0.1911  0.5431
 6322WAT     H225995   7.082   1.189   6.905 -1.8907  1.0913 -0.0871
 6322WAT    EPW25996   7.044   1.145   6.853  0.4568 -0.4766  0.3177
 6323WAT      O25997   6.924   6.770   1.068  0.1963 -0.2177  0.6304
 6323WAT     H125998   6.913   6.713   1.133  0.9058 -0.9755  0.1012
 6323WAT     H225999   6.843   6.795   1.049 -0.0589 -0.3846  1.4499
 6323WAT    EPW26000   6.911   6.765   1.075 -0.1542  0.0239  0.6518
 6324WAT      O26001   7.199   5.174   0.162  0.1108 -0.5361  0.0443
 6324WAT     H126002   7.150   5.212   0.101  0.3971  2.5706  1.5848
 6324WAT     H226003   7.149   5.177   0.234  1.5404  0.4361  1.0690
 6324WAT    EPW26004   7.184   5.180   0.164  0.0803  0.2041  0.1595
 6325WAT      O26005   5.665   4.287   4.147  0.7416 -0.0374 -0.1832
 6325WAT     H126006   5.668   4.232   4.079 -0.4396 -0.0948 -0.2032
 6325WAT     H226007   5.716   4.249   4.207  0.4331 -0.8405 -0.4259
 6325WAT    EPW26008   5.673   4.274   4.146  0.2891 -0.0849  0.6301
 6326WAT      O26009   1.628   6.171   7.527 -0.1647 -0.4486 -0.0970
 6326WAT     H126010   1.599   6.134   7.601  0.8001 -0.6327  0.2090
 6326WAT     H226011   1.633   6.105   7.471 -1.0080 -0.2890 -0.3819
 6326WAT    EPW26012   1.624   6.156   7.530 -0.2210 -0.3323  0.1837
 6327WAT      O26013   1.454   5.007   3.525 -0.1620 -0.2779  0.5651
 6327WAT     H126014   1.476   5.089   3.502 -0.5936 -0.3122  0.0095
 6327WAT     H226015   1.381   4.992   3.480  0.3705 -1.2725 -0.0129
 6327WAT    EPW26016   1.447   5.017   3.515  0.5866 -0.0982  0.1321
 6328WAT      O26017   3.159   2.047   4.537 -0.2134  0.0969 -0.0994
 6328WAT     H126018   3.197   2.052   4.615  0.4817 -0.1748 -0.4096
 6328WAT     H226019   3.147   2.130   4.513  2.5425  0.3006 -1.0963
 6328WAT    EPW26020   3.163   2.060   4.545 -0.1627  0.0417  0.1812
 6329WAT      O26021   5.025   5.298   1.880  0.0632  0.6464  0.5285
 6329WAT     H126022   5.014   5.291   1.794  0.9669  0.4667  0.4136
 6329WAT     H226023   4.953   5.340   1.907 -0.1173  0.9204 -0.3426
 6329WAT    EPW26024   5.013   5.303   1.872  0.1372 -0.1281 -0.6089
 6330WAT      O26025   5.222   7.598   1.680 -0.2781 -0.2664  0.4732
 6330WAT     H126026   5.176   7.638   1.743  0.8828  0.9650  0.5913
 6330WAT     H226027   5.250   7.525   1.719  1.6964  1.1761  1.9925
 6330WAT    EPW26028   5.219   7.593   1.695 -0.8255  0.0956 -0.1838
 6331WAT      O26029   1.470   7.439   2.475  0.4068  0.3216 -0.3018
 6331WAT     H126030   1.457   7.518   2.440 -1.8316  0.0387 -0.2442
 6331WAT     H226031   1.440   7.384   2.413 -1.4188 -0.2911  1.0503
 6331WAT    EPW26032   1.464   7.442   2.461  0.0378  0.5117 -0.5521
 6332WAT      O26033   4.445   1.675   5.001  0.5263  0.0031  0.3768
 6332WAT     H126034   4.408   1.753   4.994 -0.3030 -0.3437  0.7539
 6332WAT     H226035   4.382   1.625   5.036  0.1904 -1.3913 -1.9478
 6332WAT    EPW26036   4.430   1.679   5.005 -0.0784  0.1447  0.0975
 6333WAT      O26037   0.396   0.265   6.663  0.0892  0.1604 -0.1153
 6333WAT     H126038   0.334   0.300   6.713  0.4179 -0.9498  1.1543
 6333WAT     H226039   0.414   0.327   6.605 -1.7397  0.7528 -0.1157
 6333WAT    EPW26040   0.390   0.279   6.662  0.2547 -0.2259  0.0326
 6334WAT      O26041   5.892   1.986   4.998 -0.1649 -0.0278  0.5785
 6334WAT     H126042   5.943   2.052   5.025  1.1430 -0.4683 -0.7081
 6334WAT     H226043   5.872   1.944   5.072  2.7392 -0.7972  1.0617
 6334WAT    EPW26044   5.896   1.989   5.013  0.2432  0.5838  0.4139
 6335WAT      O26045   5.823   1.918   5.325 -0.1773  0.5685 -0.1562
 6335WAT     H126046   5.781   1.975   5.376 -0.2340 -0.9179  1.5852
 6335WAT     H226047   5.906   1.945   5.328  0.0858 -0.3224  2.0265
 6335WAT    EPW26048   5.829   1.930   5.333  0.2578  0.5998 -0.0414
 6336WAT      O26049   3.276   7.087   1.921 -0.4561 -0.0563  0.5551
 6336WAT     H126050   3.221   7.142   1.959  1.1981  2.9255 -1.0359
 6336WAT     H226051   3.342   7.081   1.977  1.0297  2.6976 -0.6790
 6336WAT    EPW26052   3.278   7.094   1.935  0.2872  0.1861 -0.3468
 6337WAT      O26053   5.933   4.818   1.824 -0.1842  0.1668  0.0510
 6337WAT     H126054   5.936   4.879   1.761 -1.5677  1.0533  0.7996
 6337WAT     H226055   5.920   4.864   1.897 -2.2338 -1.0445  0.5326
 6337WAT    EPW26056   5.932   4.834   1.825 -0.0072 -0.6347 -0.3788
 6338WAT      O26057   1.795   2.247   4.353  0.2988  0.1590  0.1318
 6338WAT     H126058   1.810   2.331   4.375  0.3980  0.2636 -0.3383
 6338WAT     H226059   1.773   2.210   4.429 -2.3679  1.1778 -0.0483
 6338WAT    EPW26060   1.794   2.254   4.368  0.5849  0.5714  0.0032
 6339WAT      O26061   7.190   2.286   4.614  0.2268  0.4189  0.1326
 6339WAT     H126062   7.115   2.307   4.653  1.8398  2.6525  2.2872
 6339WAT     H226063   7.190   2.336   4.542  0.0276  1.0647  0.5717
 6339WAT    EPW26064   7.179   2.296   4.609  0.0470 -0.1689  0.6217
 6340WAT      O26065   3.206   6.966   0.771 -0.0294 -0.2099  0.2580
 6340WAT     H126066   3.151   6.900   0.751  1.7747 -1.4822 -0.8877
 6340WAT     H226067   3.275   6.925   0.806  1.7361  0.8462 -1.7477
 6340WAT    EPW26068   3.208   6.950   0.773 -0.3745 -0.2708  0.2169
 6341WAT      O26069   6.188   7.055   4.569 -0.3639 -0.1157 -0.4387
 6341WAT     H126070   6.216   7.087   4.646 -0.0210 -1.2152 -0.0910
 6341WAT     H226071   6.239   7.096   4.511  0.2425 -0.2184  0.0115
 6341WAT    EPW26072   6.200   7.066   4.572  0.2853 -0.6306  1.2185
 6342WAT      O26073   2.468   4.325   4.447  0.2763 -0.5054  0.5674
 6342WAT     H126074   2.450   4.241   4.433 -0.2734 -0.4256  0.7325
 6342WAT     H226075   2.522   4.323   4.515  3.6687 -0.9351 -1.9087
 6342WAT    EPW26076   2.473   4.312   4.455  0.1101  0.0908 -0.1403
 6343WAT      O26077   7.540   7.388   7.353  0.3433 -0.0544  0.1078
 6343WAT     H126078   7.503   7.333   7.410  0.0531 -1.4514 -1.3362
 6343WAT     H226079   7.618   7.405   7.388 -0.2009 -0.0863  1.3804
 6343WAT    EPW26080   7.546   7.382   7.367 -0.2406 -0.1016 -0.2636
 6344WAT      O26081   4.312   3.113   7.512 -0.0218  0.2148 -0.1331
 6344WAT     H126082   4.278   3.157   7.580 -0.1464 -0.3700  0.1883
 6344WAT     H226083   4.388   3.153   7.499 -0.1799  0.6009  0.0819
 6344WAT    EPW26084   4.318   3.125   7.520 -0.2517 -0.0725 -0.2440
 6345WAT      O26085   4.527   6.050   5.551 -0.0116  0.3098  0.2730
 6345WAT     H126086   4.595   6.000   5.573  1.0734  0.7853 -1.7231
 6345WAT     H226087   4.513   6.028   5.468 -1.9610  0.6536  0.4788
 6345WAT    EPW26088   4.535   6.039   5.542  0.0716 -0.1023 -0.1886
 6346WAT      O26089   0.500   4.196   5.545 -0.1047  0.3501  0.0809
 6346WAT     H126090   0.534   4.121   5.572 -1.3754 -1.5272 -2.9794
 6346WAT     H226091   0.452   4.222   5.613  0.0500 -1.8281  1.1211
 6346WAT    EPW26092   0.498   4.189   5.559 -0.0491 -0.3928 -0.1171
 6347WAT      O26093   2.794   0.892   2.154  0.5408  0.0421 -0.4273
 6347WAT     H126094   2.788   0.912   2.069 -0.4560 -0.0969 -0.4009
 6347WAT     H226095   2.775   0.806   2.156 -1.4595  0.4386  0.1259
 6347WAT    EPW26096   2.790   0.882   2.142 -0.5620  0.0844 -0.0659
 6348WAT      O26097   5.717   3.053   0.618 -0.7441 -0.0703  0.0052
 6348WAT     H126098   5.680   2.974   0.616 -1.4331  0.2523 -0.6704
 6348WAT     H226099   5.657   3.105   0.581 -0.4752  0.8447  0.8041
 6348WAT    EPW26100   5.703   3.049   0.612 -0.4473  0.3637  0.1995
 6349WAT      O26101   4.830   2.706   6.740  0.7631 -0.0729  0.0269
 6349WAT     H126102   4.855   2.697   6.823 -3.0137  0.5800  1.4497
 6349WAT     H226103   4.805   2.626   6.717 -1.8186  0.3526  1.0189
 6349WAT    EPW26104   4.830   2.693   6.749 -0.1904 -0.0594  0.5926
 6350WAT      O26105   6.586   7.128   3.114  0.1594  0.1788 -0.5464
 6350WAT     H126106   6.623   7.056   3.081  1.7698  1.1979 -1.0876
 6350WAT     H226107   6.528   7.097   3.171 -0.9970 -1.6006 -2.5328
 6350WAT    EPW26108   6.583   7.113   3.118  0.1335 -0.1909 -0.1957
 6351WAT      O26109   0.321   4.486   3.647 -0.0241  0.0812 -0.4259
 6351WAT     H126110   0.318   4.399   3.648  0.7185  0.0515  0.2037
 6351WAT     H226111   0.406   4.504   3.644 -0.1407  0.7754  0.0931
 6351WAT    EPW26112   0.333   4.476   3.647 -0.0647  0.2947 -0.0102
 6352WAT      O26113   0.256   5.924   5.786 -0.8688  0.1044  0.0496
 6352WAT     H126114   0.191   5.962   5.741 -0.2465  1.7355  0.4517
 6352WAT     H226115   0.327   5.944   5.740 -0.3845  0.5232  0.9560
 6352WAT    EPW26116   0.257   5.933   5.772 -0.1991  0.4473 -0.4593
 6353WAT      O26117   0.582   0.137   4.912  0.1777  0.2330 -0.2214
 6353WAT     H126118   0.496   0.154   4.908  0.1052 -0.0953 -0.1658
 6353WAT     H226119   0.612   0.197   4.967  0.0262  0.5158 -0.4481
 6353WAT    EPW26120   0.574   0.148   4.920 -0.4974  0.2024 -0.1764
 6354WAT      O26121   4.935   4.313   0.226  0.0484  0.0732 -0.2494
 6354WAT     H126122   4.901   4.388   0.254  0.7757  0.8668 -1.3902
 6354WAT     H226123   4.869   4.256   0.232 -0.8122  1.0446 -0.3343
 6354WAT    EPW26124   4.920   4.316   0.231 -0.2000  0.5700 -0.0025
 6355WAT      O26125   3.108   5.403   3.239 -0.3833 -0.4764  0.2619
 6355WAT     H126126   3.169   5.354   3.277 -0.4940 -0.5883  0.2947
 6355WAT     H226127   3.033   5.366   3.264 -0.4479 -0.7277 -0.3026
 6355WAT    EPW26128   3.106   5.391   3.248 -0.5640 -0.3603  0.0413
 6356WAT      O26129   2.516   1.552   5.316  0.6436  0.4532  0.0869
 6356WAT     H126130   2.444   1.576   5.359  1.1136  0.0404  1.1325
 6356WAT     H226131   2.498   1.571   5.233 -1.8534 -2.3355 -0.1710
 6356WAT    EPW26132   2.503   1.559   5.310  0.1619 -0.6856  0.0838
 6357WAT      O26133   4.414   5.067   0.362 -0.5094 -0.1253 -0.8455
 6357WAT     H126134   4.421   5.062   0.449  0.7946 -0.9161 -0.9584
 6357WAT     H226135   4.328   5.062   0.347 -1.2600  4.1171  0.5621
 6357WAT    EPW26136   4.402   5.066   0.373 -0.6629  0.5039 -0.2325
 6358WAT      O26137   4.844   2.240   7.614  0.6189  0.1543  0.4160
 6358WAT     H126138   4.903   2.220   7.552 -0.9894 -0.3589 -1.0381
 6358WAT     H226139   4.792   2.170   7.617 -0.6703  1.0734  0.7142
 6358WAT    EPW26140   4.845   2.227   7.605 -0.0157  0.3989  0.2869
 6359WAT      O26141   1.031   6.617   2.681 -0.2069  0.1034 -0.0270
 6359WAT     H126142   0.967   6.615   2.622 -1.2396  0.5167  1.0564
 6359WAT     H226143   1.039   6.534   2.706 -0.6166  0.1162  0.1471
 6359WAT    EPW26144   1.023   6.605   2.676  0.2180  0.5262  0.5090
 6360WAT      O26145   2.646   1.123   0.485 -0.0152 -0.4540 -0.2569
 6360WAT     H126146   2.628   1.194   0.438 -0.5062 -1.0001 -0.9128
 6360WAT     H226147   2.570   1.080   0.488  0.5326 -1.5069 -0.8231
 6360WAT    EPW26148   2.632   1.127   0.479 -0.0182  0.1284 -0.4984
 6361WAT      O26149   5.564   5.339   1.838 -0.2822 -0.3219  0.3440
 6361WAT     H126150   5.556   5.372   1.918 -0.5559 -0.8433  0.5368
 6361WAT     H226151   5.614   5.268   1.850  0.6674  0.2335 -0.1267
 6361WAT    EPW26152   5.570   5.333   1.851  0.3898  0.1134 -0.2587
 6362WAT      O26153   2.105   5.698   1.517 -0.6654 -0.0454  0.1374
 6362WAT     H126154   2.071   5.643   1.576 -0.4344  0.0619  0.3732
 6362WAT     H226155   2.191   5.682   1.523 -0.7014 -0.6702 -0.7997
 6362WAT    EPW26156   2.113   5.687   1.527  0.1196  0.0917 -0.1339
 6363WAT      O26157   3.314   5.061   2.201 -0.4869  0.0268  0.4725
 6363WAT     H126158   3.378   5.029   2.151  0.6204 -1.1668  2.4958
 6363WAT     H226159   3.345   5.137   2.229 -1.3901  1.0268 -1.0774
 6363WAT    EPW26160   3.328   5.067   2.198  0.1284  0.4913  0.2342
 6364WAT      O26161   7.018   5.158   0.396 -0.5218  0.1974  0.4981
 6364WAT     H126162   6.990   5.183   0.474 -1.4541 -2.3792  1.0853
 6364WAT     H226163   6.950   5.172   0.344 -0.4222  0.5229  0.4550
 6364WAT    EPW26164   7.004   5.163   0.400 -0.5987 -0.5817  0.7769
 6365WAT      O26165   0.826   3.460   5.516  0.5498 -0.4101  0.1263
 6365WAT     H126166   0.781   3.509   5.459  0.3641 -0.1381  0.5017
 6365WAT     H226167   0.909   3.483   5.501  0.3694  1.5228  1.6204
 6365WAT    EPW26168   0.832   3.471   5.505 -0.1484  0.1811  0.6000
 6366WAT      O26169   2.085   7.018   1.767  0.0045 -0.1764  0.1211
 6366WAT     H126170   2.161   7.060   1.759  0.5365 -0.3908  2.9629
 6366WAT     H226171   2.034   7.056   1.707  1.1206  2.9830  0.9789
 6366WAT    EPW26172   2.089   7.030   1.757  0.0715  0.0431 -0.7800
 6367WAT      O26173   7.217   1.342   6.137  0.0351  0.0878 -0.0135
 6367WAT     H126174   7.154   1.330   6.078  2.0863 -0.6665 -2.2212
 6367WAT     H226175   7.224   1.263   6.175  0.1886 -0.0841 -0.3867
 6367WAT    EPW26176   7.209   1.328   6.134 -0.5151  0.0564  0.5190
 6368WAT      O26177   6.312   3.941   6.015 -0.0925 -0.1760  0.2656
 6368WAT     H126178   6.237   3.897   6.027  0.7059 -1.1524  2.0649
 6368WAT     H226179   6.298   3.985   5.941 -1.7983 -1.6895 -0.3928
 6368WAT    EPW26180   6.299   3.941   6.006 -0.6490 -0.2003  0.3138
 6369WAT      O26181   1.933   0.767   6.699 -0.2081  0.3969 -0.2149
 6369WAT     H126182   1.872   0.753   6.638  2.4246 -0.6119 -2.8996
 6369WAT     H226183   1.897   0.738   6.772 -2.5504 -1.1491 -1.8653
 6369WAT    EPW26184   1.919   0.761   6.701  0.6272  0.4448  0.8816
 6370WAT      O26185   2.373   4.841   4.421 -0.4125 -0.0011 -0.4358
 6370WAT     H126186   2.320   4.908   4.439 -0.4582  0.1726 -1.1760
 6370WAT     H226187   2.354   4.822   4.338  2.1039  1.4528 -1.4678
 6370WAT    EPW26188   2.363   4.848   4.411 -0.2894  0.5990 -0.6786
 6371WAT      O26189   3.616   1.792   5.399 -0.0448  0.8458  0.1486
 6371WAT     H126190   3.630   1.783   5.313 -0.6863 -0.6072  0.1702
 6371WAT     H226191   3.639   1.875   5.415 -1.4648  1.6738 -1.7318
 6371WAT    EPW26192   3.622   1.803   5.389  0.0081 -0.0720 -0.1057
 6372WAT      O26193   7.347   2.993   0.881  0.2432 -0.0787  0.4772
 6372WAT     H126194   7.390   3.066   0.899 -1.8037  1.0425  1.0452
 6372WAT     H226195   7.381   2.935   0.938  2.9562 -0.1256 -0.9740
 6372WAT    EPW26196   7.359   2.995   0.892  0.0180  0.3256 -0.0316
 6373WAT      O26197   2.463   1.457   2.646  0.4113  0.1689 -0.0706
 6373WAT     H126198   2.535   1.412   2.667  0.6189  0.5566  0.0543
 6373WAT     H226199   2.473   1.532   2.688  0.3330  0.5551 -0.7262
 6373WAT    EPW26200   2.475   1.461   2.655 -0.2795  0.6492 -0.1268
 6374WAT      O26201   6.705   5.115   5.929 -0.7490 -0.3179 -0.1772
 6374WAT     H126202   6.640   5.093   5.874 -0.7643  1.7965 -1.0942
 6374WAT     H226203   6.775   5.118   5.877  0.2993 -3.1265  0.9003
 6374WAT    EPW26204   6.706   5.112   5.913  0.2393  0.2652 -0.9569
 6375WAT      O26205   2.410   7.564   4.271  0.0966 -0.8589 -0.1354
 6375WAT     H126206   2.387   7.586   4.352  0.3317 -0.5115 -0.1629
 6375WAT     H226207   2.432   7.480   4.279  0.6428 -0.6871  0.2740
 6375WAT    EPW26208   2.410   7.555   4.284  0.6320  0.0566 -0.5556
 6376WAT      O26209   2.050   0.101   3.218 -0.2057 -0.4577 -0.5567
 6376WAT     H126210   2.044   0.084   3.132  2.5629  1.3144 -1.2477
 6376WAT     H226211   1.979   0.149   3.234 -0.8816 -0.9719 -1.8086
 6376WAT    EPW26212   2.039   0.106   3.207 -0.3505 -0.4675 -0.1368
 6377WAT      O26213   4.060   1.960   2.305  0.1516 -0.7612  0.1087
 6377WAT     H126214   4.099   1.887   2.276 -2.5833 -1.7797 -1.4349
 6377WAT     H226215   4.086   1.965   2.388  1.2249 -2.9493 -0.0040
 6377WAT    EPW26216   4.069   1.950   2.313 -0.5646  0.5203 -0.0348
 6378WAT      O26217   1.946   7.173   4.391 -0.0298 -0.2209  0.8316
 6378WAT     H126218   1.871   7.197   4.428  0.3177  2.3697  0.0530
 6378WAT     H226219   2.005   7.225   4.429  0.6777  0.8967 -1.6036
 6378WAT    EPW26220   1.944   7.184   4.402 -0.0452 -0.1066  0.1934
 6379WAT      O26221   1.095   0.570   6.877 -0.1746  0.0033 -0.2270
 6379WAT     H126222   1.083   0.580   6.963  1.0302  1.0067 -0.1461
 6379WAT     H226223   1.152   0.504   6.872 -0.1255  0.0463 -0.2395
 6379WAT    EPW26224   1.102   0.561   6.889  0.2692 -0.2899 -0.2958
 6380WAT      O26225   3.103   3.734   2.065  0.3073 -0.3924  0.1812
 6380WAT     H126226   3.123   3.813   2.032 -0.0991  0.1155  1.1235
 6380WAT     H226227   3.180   3.702   2.088  0.6346 -0.8522 -1.4158
 6380WAT    EPW26228   3.117   3.741   2.063 -0.1582  0.2124  0.3340
 6381WAT      O26229   1.082   0.015   4.325 -0.1341 -0.3488 -0.1852
 6381WAT     H126230   1.067   0.099   4.344  0.1158  0.5753 -3.5025
 6381WAT     H226231   1.166   0.004   4.346 -0.6100 -0.3942  1.9577
 6381WAT    EPW26232   1.092   0.026   4.331  0.3443 -0.1626  0.1078
 6382WAT      O26233   2.939   5.887   0.577 -0.0272  0.5068 -0.2732
 6382WAT     H126234   2.921   5.810   0.541  0.5862  0.2641 -0.0699
 6382WAT     H226235   2.869   5.904   0.627 -0.9091  0.8708 -1.5833
 6382WAT    EPW26236   2.926   5.878   0.579 -0.1319  0.5403  0.1613
 6383WAT      O26237   4.087   4.746   5.037  0.8673 -0.0085  0.9149
 6383WAT     H126238   4.116   4.794   5.103 -0.3393  0.8161  0.8885
 6383WAT     H226239   4.039   4.684   5.076 -0.6257  1.0377  0.8107
 6383WAT    EPW26240   4.084   4.744   5.052  0.2291 -0.1901 -0.3498
 6384WAT      O26241   5.054   6.485   3.228  0.3646  0.2038  0.0263
 6384WAT     H126242   4.995   6.445   3.278  0.0872  0.9724  0.3465
 6384WAT     H226243   5.018   6.485   3.148  0.2995 -0.0519  0.0577
 6384WAT    EPW26244   5.040   6.479   3.224  0.1212 -0.0312 -0.2725
 6385WAT      O26245   0.600   5.596   1.852  0.3949  0.4695 -0.2901
 6385WAT     H126246   0.676   5.575   1.814 -0.5470 -0.0029 -2.0305
 6385WAT     H226247   0.540   5.557   1.802 -0.9936  0.3088  1.3915
 6385WAT    EPW26248   0.602   5.588   1.839 -0.7558  0.2602  1.0958
 6386WAT      O26249   3.335   0.459   3.527 -0.3849  0.1353  0.1957
 6386WAT     H126250   3.292   0.463   3.452 -0.5477  0.4854  0.3070
 6386WAT     H226251   3.338   0.542   3.554 -0.0800  0.0504  0.4346
 6386WAT    EPW26252   3.329   0.472   3.520  0.7222  0.2010  0.3951
 6387WAT      O26253   4.572   6.501   3.488 -0.0514 -0.1317  0.2266
 6387WAT     H126254   4.540   6.561   3.434  0.5374  1.3318  1.4141
 6387WAT     H226255   4.640   6.467   3.445 -0.7321 -0.3784 -0.6799
 6387WAT    EPW26256   4.578   6.505   3.474  0.8516 -0.3267  0.0161
 6388WAT      O26257   3.330   6.501   2.051  0.1782 -0.0844 -0.5114
 6388WAT     H126258   3.269   6.561   2.066  0.4819  0.2661 -0.6687
 6388WAT     H226259   3.396   6.546   2.016  0.5030 -0.4672 -0.4098
 6388WAT    EPW26260   3.331   6.516   2.048  0.5095  0.0984  0.7076
 6389WAT      O26261   5.235   4.512   0.676  0.1328  0.1089 -0.1579
 6389WAT     H126262   5.242   4.426   0.686  0.6189  0.1063 -0.5066
 6389WAT     H226263   5.232   4.523   0.590  1.3799  0.5356 -0.1608
 6389WAT    EPW26264   5.236   4.501   0.665  0.1346 -0.3902 -0.0133
 6390WAT      O26265   4.046   0.907   6.899  0.0603 -0.5088 -0.1896
 6390WAT     H126266   4.071   0.856   6.833  3.3530  0.3454  0.1900
 6390WAT     H226267   4.058   0.988   6.869 -1.1738 -0.0189  0.5358
 6390WAT    EPW26268   4.052   0.911   6.885 -0.3926  0.2481 -0.0413
 6391WAT      O26269   5.538   5.701   7.397  0.0656  0.2473 -0.1885
 6391WAT     H126270   5.604   5.717   7.452 -1.5351  1.5167  1.4773
 6391WAT     H226271   5.486   5.771   7.407 -1.3037 -0.4991 -1.7776
 6391WAT    EPW26272   5.540   5.714   7.407  0.3215  0.7783 -0.1011
 6392WAT      O26273   4.193   4.826   0.724  0.0019  0.5760  0.1699
 6392WAT     H126274   4.123   4.845   0.772 -0.1394  1.8340 -0.4873
 6392WAT     H226275   4.229   4.759   0.766 -0.4075  1.2912  1.7504
 6392WAT    EPW26276   4.188   4.819   0.738 -0.6391 -0.0177 -0.0052
 6393WAT      O26277   1.528   4.922   4.709  0.2216  0.2110 -0.0359
 6393WAT     H126278   1.570   4.892   4.779 -0.5884  1.6917  1.1255
 6393WAT     H226279   1.456   4.875   4.705  0.3193  0.0552  0.0534
 6393WAT    EPW26280   1.524   4.911   4.718 -0.1133 -0.7033 -0.6650
 6394WAT      O26281   4.410   2.118   0.522 -0.2640  0.4637  0.5462
 6394WAT     H126282   4.408   2.051   0.578  1.1594 -0.3890 -0.3517
 6394WAT     H226283   4.363   2.180   0.562 -0.8970 -0.7618  1.7929
 6394WAT    EPW26284   4.402   2.117   0.536 -0.3712 -0.3724  0.0192
 6395WAT      O26285   4.650   5.617   7.245  0.3753 -0.7529  0.0958
 6395WAT     H126286   4.602   5.683   7.213  1.4059  0.5088  1.0324
 6395WAT     H226287   4.640   5.554   7.186 -1.2410 -0.0194 -0.4654
 6395WAT    EPW26288   4.642   5.617   7.231 -0.6886 -0.2642 -0.2845
 6396WAT      O26289   4.645   6.652   0.424  0.4541 -0.0882  0.1213
 6396WAT     H126290   4.644   6.630   0.509  0.1130  1.0256  0.4207
 6396WAT     H226291   4.681   6.731   0.424  0.9914 -0.3230 -0.8495
 6396WAT    EPW26292   4.650   6.660   0.437  0.2776  0.5414  0.3496
 6397WAT      O26293   1.144   6.358   0.489  0.1962 -0.1180  0.0830
 6397WAT     H126294   1.069   6.315   0.490 -0.8219  1.5875  0.5873
 6397WAT     H226295   1.133   6.421   0.548  1.1739  1.5186 -1.3621
 6397WAT    EPW26296   1.132   6.361   0.498  0.4539 -0.0589  0.0463
 6398WAT      O26297   0.262   4.241   0.949  0.3611  0.1748  0.4965
 6398WAT     H126298   0.234   4.255   0.868 -0.9084  0.1848  0.9075
 6398WAT     H226299   0.188   4.238   0.996  1.1266  1.9076  1.9262
 6398WAT    EPW26300   0.247   4.243   0.944 -0.0392 -0.0250 -0.0828
 6399WAT      O26301   7.221   4.709   5.040  0.6274 -0.2267 -0.5715
 6399WAT     H126302   7.286   4.719   4.984 -0.2772  0.5125 -1.5267
 6399WAT     H226303   7.149   4.718   4.991 -0.2111 -1.3421  0.3805
 6399WAT    EPW26304   7.220   4.712   5.025  0.2935  0.2838  0.1931
 6400WAT      O26305   4.285   5.503   6.611 -0.1316 -0.5491 -0.0362
 6400WAT     H126306   4.356   5.485   6.564  0.5946  0.6874  0.5537
 6400WAT     H226307   4.283   5.439   6.670 -0.6029 -1.6553 -1.1905
 6400WAT    EPW26308   4.295   5.491   6.613 -0.0830 -0.5352  0.0662
 6401WAT      O26309   4.989   0.328   5.888  0.0603  0.0974 -0.2950
 6401WAT     H126310   4.921   0.383   5.897 -0.8205 -0.8495 -0.9093
 6401WAT     H226311   5.056   0.381   5.870 -0.0305  1.2595  2.3401
 6401WAT    EPW26312   4.989   0.344   5.887 -0.4207  0.6065  0.1010
 6402WAT      O26313   2.667   6.826   7.391 -0.8033  0.3168  0.3729
 6402WAT     H126314   2.685   6.798   7.310 -0.8159  0.4096  0.3383
 6402WAT     H226315   2.658   6.752   7.436 -1.2856  0.2620  0.1865
 6402WAT    EPW26316   2.669   6.811   7.385  0.1633  0.0010  0.8530
 6403WAT      O26317   0.065   3.449   5.165  0.4947 -0.1692  0.5440
 6403WAT     H126318   0.122   3.478   5.105  0.4794 -1.3743 -0.0880
 6403WAT     H226319  -0.000   3.506   5.160  0.1728 -0.6072 -1.1197
 6403WAT    EPW26320   0.064   3.462   5.155  0.0336  0.4159 -0.1948
 6404WAT      O26321   1.112   0.772   4.366  0.0159  0.1662 -0.2624
 6404WAT     H126322   1.156   0.814   4.303 -1.0826  0.8750 -0.5771
 6404WAT     H226323   1.066   0.712   4.322  1.2158 -1.0936  0.1399
 6404WAT    EPW26324   1.112   0.769   4.350 -0.3083  0.3980  0.3653
 6405WAT      O26325   3.197   5.552   7.227 -0.1407 -0.0192  0.0726
 6405WAT     H126326   3.157   5.557   7.150 -0.0411  0.3883  0.0432
 6405WAT     H226327   3.135   5.521   7.281 -0.1362 -0.5467 -0.2171
 6405WAT    EPW26328   3.182   5.548   7.224  0.6298 -0.4023 -0.3056
 6406WAT      O26329   5.106   0.524   4.299  0.0564  0.3562 -0.7794
 6406WAT     H126330   5.180   0.568   4.313  1.1170 -1.1760 -1.2646
 6406WAT     H226331   5.122   0.446   4.335 -1.2226 -0.1066 -1.1489
 6406WAT    EPW26332   5.119   0.519   4.307  0.1547 -0.0699 -0.3050
 6407WAT      O26333   6.830   4.203   1.684  0.1737  0.6684  0.6208
 6407WAT     H126334   6.818   4.270   1.739  1.1031  0.0510  1.6124
 6407WAT     H226335   6.906   4.169   1.709 -0.8163 -1.4729  0.9317
 6407WAT    EPW26336   6.839   4.208   1.696 -0.7656  0.0777  0.2968
 6408WAT      O26337   5.015   6.705   6.629  0.4248 -0.2253  0.0049
 6408WAT     H126338   5.102   6.706   6.626  0.5321 -2.4050  0.6835
 6408WAT     H226339   4.998   6.704   6.714 -0.2150 -1.1897 -0.1292
 6408WAT    EPW26340   5.025   6.705   6.641 -0.0634  0.4421  0.5964
 6409WAT      O26341   4.919   6.677   6.893 -0.4089 -0.3723  0.0355
 6409WAT     H126342   4.955   6.704   6.967  2.4992 -0.3302 -1.2517
 6409WAT     H226343   4.912   6.590   6.904  3.3869 -0.9655 -0.7319
 6409WAT    EPW26344   4.924   6.668   6.905 -0.0415  0.5180 -0.0442
 6410WAT      O26345   4.960   1.573   0.655  0.5471  0.3430  0.5923
 6410WAT     H126346   4.960   1.579   0.568 -1.2087 -0.6285  0.4853
 6410WAT     H226347   5.044   1.580   0.676  0.7725  4.8844 -0.7923
 6410WAT    EPW26348   4.972   1.575   0.645 -0.5334 -0.1128  0.0195
 6411WAT      O26349   2.436   0.939   3.449  0.1453 -0.1829 -0.0327
 6411WAT     H126350   2.423   0.871   3.396  1.0637  0.2878 -0.8948
 6411WAT     H226351   2.522   0.953   3.444  0.2574 -0.0626  1.5322
 6411WAT    EPW26352   2.446   0.931   3.441  0.0085  0.1749 -0.1497
 6412WAT      O26353   5.019   7.148   5.034  0.5156 -0.1127 -0.2005
 6412WAT     H126354   4.947   7.183   5.069  0.7007  0.7573 -0.6785
 6412WAT     H226355   5.059   7.112   5.103 -0.1554 -0.2409  0.1379
 6412WAT    EPW26356   5.014   7.148   5.050 -0.2393 -0.5249  0.2306
 6413WAT      O26357   4.795   7.493   6.058 -0.2757 -0.0485 -0.0313
 6413WAT     H126358   4.739   7.546   6.016 -1.7093 -0.4224  1.3285
 6413WAT     H226359   4.854   7.549   6.091 -1.5395  0.7425  1.0354
 6413WAT    EPW26360   4.795   7.509   6.057 -0.5414  0.7646 -0.7350
 6414WAT      O26361   2.649   2.049   4.927  0.1746 -0.2025 -0.0739
 6414WAT     H126362   2.722   2.094   4.907  0.3571 -0.9896 -1.2533
 6414WAT     H226363   2.597   2.063   4.859 -0.8042  0.3459  0.7615
 6414WAT    EPW26364   2.652   2.058   4.914 -0.1765 -0.1550 -0.5589
 6415WAT      O26365   6.495   0.624   1.340  0.1759 -0.6837 -0.5755
 6415WAT     H126366   6.520   0.701   1.307  3.4321 -1.2517  0.2270
 6415WAT     H226367   6.416   0.612   1.305 -0.2868  2.7699 -1.0855
 6415WAT    EPW26368   6.487   0.633   1.330  0.0813  0.4143  0.1067
 6416WAT      O26369   6.047   2.882   2.631  0.0168  0.4042  0.3729
 6416WAT     H126370   5.969   2.851   2.609  0.0943 -0.4687  1.2755
 6416WAT     H226371   6.029   2.951   2.681 -0.1599  0.7119 -0.1064
 6416WAT    EPW26372   6.033   2.888   2.635  0.4775 -0.1204  0.3318
 6417WAT      O26373   2.198   1.463   2.847  0.5570 -0.1313 -0.2555
 6417WAT     H126374   2.265   1.452   2.901  1.3381 -1.2254 -1.3937
 6417WAT     H226375   2.129   1.439   2.894  0.9991  0.5934  0.7918
 6417WAT    EPW26376   2.198   1.458   2.862 -0.0212 -0.3561 -0.1185
 6418WAT      O26377   5.160   4.138   0.286 -0.0464  0.0236  0.2234
 6418WAT     H126378   5.095   4.195   0.275 -0.6342 -0.5508  0.5928
 6418WAT     H226379   5.193   4.128   0.206 -0.6453  0.0598 -0.0336
 6418WAT    EPW26380   5.155   4.145   0.273  0.0046 -0.3907  0.0768
 6419WAT      O26381   4.287   5.146   2.215  0.0772 -0.2900 -0.4208
 6419WAT     H126382   4.336   5.163   2.285  1.1582  0.8435 -1.4130
 6419WAT     H226383   4.296   5.060   2.204  1.6105 -0.1544 -0.3807
 6419WAT    EPW26384   4.295   5.136   2.224 -0.4232  0.1256 -0.1651
 6420WAT      O26385   3.248   1.849   2.376 -0.0384  0.6034  0.1119
 6420WAT     H126386   3.172   1.862   2.416  0.0992  0.2580  0.4921
 6420WAT     H226387   3.225   1.821   2.296 -0.3094  0.1546  0.3445
 6420WAT    EPW26388   3.234   1.846   2.370 -0.8182  0.0360 -0.7282
 6421WAT      O26389   7.500   7.238   2.878 -0.1138  0.2880 -0.1311
 6421WAT     H126390   7.452   7.267   2.944  0.1697  0.7545 -0.1312
 6421WAT     H226391   7.475   7.288   2.811 -1.9552 -1.5315 -0.9320
 6421WAT    EPW26392   7.489   7.250   2.878 -0.0043  0.6051 -0.6868
 6422WAT      O26393   0.576   2.943   3.834  0.0875  0.7616  1.2597
 6422WAT     H126394   0.588   2.874   3.885 -1.3305  0.0835  0.7055
 6422WAT     H226395   0.595   2.914   3.754 -0.2152  1.1046  1.0582
 6422WAT    EPW26396   0.581   2.929   3.830 -0.1781 -0.5801  0.2666
 6423WAT      O26397   7.136   2.681   3.412  0.0930 -0.0101  0.5072
 6423WAT     H126398   7.066   2.715   3.451  0.3828  0.9490  0.2015
 6423WAT     H226399   7.104   2.646   3.338  0.1045  1.5571 -0.2710
 6423WAT    EPW26400   7.121   2.681   3.406  0.3330  0.1799  0.1431
 6424WAT      O26401   4.456   4.186   1.949  0.6334 -0.8411 -0.0690
 6424WAT     H126402   4.506   4.254   1.928 -0.5946 -0.4427 -2.0156
 6424WAT     H226403   4.514   4.121   1.960  1.7773  0.3666  1.3125
 6424WAT    EPW26404   4.472   4.186   1.947 -0.9310  0.0081 -0.1446
 6425WAT      O26405   6.758   6.126   6.447 -0.4269  0.0969 -0.4375
 6425WAT     H126406   6.827   6.150   6.495  0.1079  0.0460 -1.1525
 6425WAT     H226407   6.703   6.192   6.455  0.2993  0.7841 -0.9899
 6425WAT    EPW26408   6.760   6.139   6.455  0.8376 -0.2468 -0.0882
 6426WAT      O26409   2.343   1.877   0.778  0.6051  0.7795 -0.7477
 6426WAT     H126410   2.319   1.905   0.699 -1.5487  1.2796  0.0241
 6426WAT     H226411   2.393   1.807   0.760 -0.5593  0.3446 -2.5304
 6426WAT    EPW26412   2.347   1.871   0.763  0.1222  1.0199  0.0639
 6427WAT      O26413   2.907   2.352   0.753 -0.3456  0.2649 -0.9055
 6427WAT     H126414   2.939   2.425   0.788 -0.3401 -0.7179  1.3211
 6427WAT     H226415   2.975   2.318   0.711  0.2781  0.4955 -0.1205
 6427WAT    EPW26416   2.921   2.358   0.752 -0.1510 -0.4716  0.3097
 6428WAT      O26417   2.753   3.200   2.731  0.9120  0.4323 -0.3118
 6428WAT     H126418   2.725   3.161   2.805  1.2073 -0.7308 -0.7838
 6428WAT     H226419   2.787   3.275   2.760 -1.6743  1.4483  0.3959
 6428WAT    EPW26420   2.754   3.205   2.746 -0.3929 -0.0690 -0.5263
 6429WAT      O26421   0.411   1.548   2.250  0.3853 -0.3423 -0.1282
 6429WAT     H126422   0.371   1.531   2.326  0.6549  0.1581  0.1297
 6429WAT     H226423   0.491   1.573   2.274  0.7608 -1.0424 -0.6274
 6429WAT    EPW26424   0.417   1.549   2.264  0.5297  0.1619  0.4418
 6430WAT      O26425   3.287   1.302   1.398 -0.7132  0.0318  0.3890
 6430WAT     H126426   3.285   1.330   1.315  0.6233  1.2499  0.7227
 6430WAT     H226427   3.231   1.356   1.439  0.7056  1.3002  0.7479
 6430WAT    EPW26428   3.278   1.314   1.392 -0.1212 -0.0479  0.3784
 6431WAT      O26429   3.036   4.355   3.364  0.0925 -0.5585 -0.3133
 6431WAT     H126430   3.001   4.302   3.304 -2.5534 -1.7552  2.0456
 6431WAT     H226431   3.009   4.434   3.339 -1.9784 -1.1630 -0.1343
 6431WAT    EPW26432   3.027   4.359   3.351  0.2121 -0.3439 -0.4348
 6432WAT      O26433   7.079   2.669   4.725  0.1506  0.3222  0.2538
 6432WAT     H126434   7.006   2.675   4.679  0.8512  1.2610 -0.7942
 6432WAT     H226435   7.052   2.653   4.806 -1.1118 -1.7895 -0.5023
 6432WAT    EPW26436   7.064   2.667   4.730 -0.2477 -0.1713 -0.0645
 6433WAT      O26437   6.458   5.518  -0.016 -0.3919 -0.3973  0.1326
 6433WAT     H126438   6.499   5.595  -0.004  0.7002 -0.8423 -0.5870
 6433WAT     H226439   6.393   5.521   0.041 -0.0751  0.8664  0.4689
 6433WAT    EPW26440   6.455   5.530  -0.006  0.4787 -0.4111 -0.1181
 6434WAT      O26441   1.125   7.076   3.752 -0.1217  0.1273 -0.4238
 6434WAT     H126442   1.192   7.126   3.776  0.3203 -1.2405  1.4673
 6434WAT     H226443   1.159   7.025   3.690  0.5294 -0.2828  0.2412
 6434WAT    EPW26444   1.140   7.076   3.747 -0.4174 -0.4940 -0.0557
 6435WAT      O26445   0.417   3.957   6.640  0.5651 -0.4308  0.2620
 6435WAT     H126446   0.413   4.036   6.604  0.9926 -0.8424 -0.7339
 6435WAT     H226447   0.351   3.914   6.602  2.1980 -1.4544 -1.5969
 6435WAT    EPW26448   0.407   3.962   6.629 -0.2799 -0.1100 -0.1520
 6436WAT      O26449   6.216   7.342   1.484  0.0120  0.6424  0.3083
 6436WAT     H126450   6.228   7.259   1.460  0.4759  0.8819 -0.3046
 6436WAT     H226451   6.290   7.382   1.461 -0.6043  1.4410 -0.3855
 6436WAT    EPW26452   6.228   7.336   1.477 -0.3160 -0.3957 -0.2750
 6437WAT      O26453   0.684   0.520   3.886  0.7351  0.0043 -0.4773
 6437WAT     H126454   0.741   0.580   3.913  2.2708 -1.8044  0.5492
 6437WAT     H226455   0.657   0.483   3.961 -1.5417  0.5057 -0.9571
 6437WAT    EPW26456   0.688   0.524   3.901  0.6410 -0.4760 -0.3062
 6438WAT      O26457   1.755   4.461   7.492 -0.2890  0.1734 -0.0792
 6438WAT     H126458   1.773   4.384   7.454 -1.4240  0.9255 -2.3443
 6438WAT     H226459   1.767   4.445   7.577 -1.3403 -2.7833 -0.3613
 6438WAT    EPW26460   1.759   4.447   7.499 -0.0139  0.4512  0.1102
 6439WAT      O26461   4.912   5.010   1.899  0.4763  0.4848  0.2790
 6439WAT     H126462   4.943   4.962   1.833 -1.4866 -1.2927  0.5653
 6439WAT     H226463   4.957   5.085   1.892 -0.1605  0.7002 -3.5126
 6439WAT    EPW26464   4.923   5.014   1.888  0.1018  0.5692 -0.5224
 6440WAT      O26465   7.464   6.413   1.745 -0.3490 -0.2221 -0.2552
 6440WAT     H126466   7.379   6.398   1.758 -0.9804  1.6518 -1.6087
 6440WAT     H226467   7.475   6.393   1.661  0.4275  0.0380 -0.2214
 6440WAT    EPW26468   7.453   6.408   1.734 -0.1959 -0.1128  0.0508
 6441WAT      O26469   2.030   6.897   6.088  0.1000  0.0154 -0.4204
 6441WAT     H126470   1.951   6.934   6.096  0.8063  1.5488 -0.1066
 6441WAT     H226471   2.084   6.959   6.118  1.4505 -0.8739 -0.9426
 6441WAT    EPW26472   2.026   6.912   6.094  0.0075  0.0474  0.5800
 6442WAT      O26473   0.978   4.412   2.028 -0.0522 -0.4909  0.0307
 6442WAT     H126474   0.957   4.434   1.946  0.9189  2.4319  0.4477
 6442WAT     H226475   1.051   4.458   2.043 -0.7342 -0.1553  2.8535
 6442WAT    EPW26476   0.986   4.422   2.018 -0.5802  0.3772 -0.1293
 6443WAT      O26477   7.616   4.685   5.567 -0.1544  0.3909  0.1591
 6443WAT     H126478   7.697   4.658   5.583  1.0299  3.3709 -0.1382
 6443WAT     H226479   7.586   4.706   5.646  0.3000  1.4999  0.0598
 6443WAT    EPW26480   7.624   4.684   5.581  0.0128 -0.2228  0.7208
 6444WAT      O26481   3.852   0.575   2.306  0.4596  0.1973  0.1575
 6444WAT     H126482   3.857   0.654   2.269  2.0180  0.2483  0.3906
 6444WAT     H226483   3.910   0.528   2.260  0.4714 -0.4585  0.8252
 6444WAT    EPW26484   3.862   0.580   2.294 -0.3912 -0.2970 -0.1734
 6445WAT      O26485   0.282   0.562   0.528 -0.7030  0.0428  0.7090
 6445WAT     H126486   0.299   0.479   0.506 -0.5941  0.2420  0.0147
 6445WAT     H226487   0.223   0.555   0.592  0.8721 -0.6296  2.1557
 6445WAT    EPW26488   0.276   0.549   0.534 -0.2379  0.2272 -0.5083
 6446WAT      O26489   5.719   5.396   1.417  0.1146 -0.9189 -0.0058
 6446WAT     H126490   5.795   5.424   1.448 -0.0362 -0.0431 -0.4027
 6446WAT     H226491   5.725   5.409   1.331 -1.0772  0.7419  0.1015
 6446WAT    EPW26492   5.731   5.402   1.409 -0.2235  0.0597  0.0888
 6447WAT      O26493   4.142   0.543   7.275 -0.0796 -0.1222 -0.0405
 6447WAT     H126494   4.216   0.574   7.240 -0.6824  1.0401 -0.3338
 6447WAT     H226495   4.167   0.515   7.353  0.8783 -0.7723 -0.5582
 6447WAT    EPW26496   4.156   0.543   7.281  0.3219  0.3994  0.5305
 6448WAT      O26497   3.415   7.225   4.345  0.8355  0.7075 -0.3060
 6448WAT     H126498   3.434   7.289   4.289 -1.8854  0.9552 -1.0887
 6448WAT     H226499   3.349   7.183   4.307  1.6134 -1.7352  0.8368
 6448WAT    EPW26500   3.408   7.228   4.331 -0.1449  0.5356 -0.1198
 6449WAT      O26501   0.403   5.576   0.702  0.5496 -0.6887  0.1785
 6449WAT     H126502   0.450   5.554   0.632  1.2892 -0.6993  0.6588
 6449WAT     H226503   0.401   5.663   0.699  0.9999 -0.6672  0.4010
 6449WAT    EPW26504   0.410   5.586   0.691 -0.1011 -0.4671  0.1720
 6450WAT      O26505   2.429   3.945   2.374  0.4262  0.4442 -0.0261
 6450WAT     H126506   2.400   3.989   2.443  0.4557  0.4320 -0.0056
 6450WAT     H226507   2.456   4.007   2.320  1.7536  0.4222  0.5713
 6450WAT    EPW26508   2.429   3.961   2.377 -0.4036 -0.4988  0.2021
 6451WAT      O26509   3.540   6.403   5.163 -0.1731 -0.1486 -0.1454
 6451WAT     H126510   3.550   6.342   5.101  0.1559 -0.3535  0.1036
 6451WAT     H226511   3.479   6.369   5.215  2.3109 -1.8727  1.8794
 6451WAT    EPW26512   3.532   6.389   5.162  0.4925 -0.1195 -0.0786
 6452WAT      O26513   4.174   0.693   2.002  0.1157 -0.2958  0.2870
 6452WAT     H126514   4.174   0.648   2.077 -0.9298 -0.0549  0.4435
 6452WAT     H226515   4.208   0.770   2.025 -0.2525 -0.2036  0.5210
 6452WAT    EPW26516   4.179   0.698   2.017 -0.2404  0.0350  0.2041
 6453WAT      O26517   0.296   5.836   0.688 -0.2746 -0.7026 -0.1047
 6453WAT     H126518   0.297   5.832   0.601 -0.6771 -1.2001 -0.0911
 6453WAT     H226519   0.221   5.796   0.710  0.1198 -1.1444  0.4930
 6453WAT    EPW26520   0.285   5.829   0.679  0.1643  0.3731  0.1918
 6454WAT      O26521   5.785   2.862   1.745  0.1951 -0.1029 -0.7602
 6454WAT     H126522   5.761   2.780   1.726  2.0891 -0.4216 -2.0017
 6454WAT     H226523   5.816   2.892   1.669  1.1323  1.1738  0.0994
 6454WAT    EPW26524   5.786   2.854   1.731 -0.2570  0.1502  0.6044
 6455WAT      O26525   3.094   5.625   4.177 -0.3798  0.0058  0.1343
 6455WAT     H126526   3.081   5.558   4.122 -0.7583 -0.5910  0.9362
 6455WAT     H226527   3.141   5.589   4.241  0.0015  0.6830  0.2418
 6455WAT    EPW26528   3.099   5.610   4.178  0.1202  0.2739 -0.3475
 6456WAT      O26529   3.055   4.509   5.775 -0.2941  0.4554 -0.2208
 6456WAT     H126530   3.099   4.480   5.706  1.1716  0.3387  0.7218
 6456WAT     H226531   3.049   4.595   5.760  1.5009  0.7117  0.2524
 6456WAT    EPW26532   3.061   4.517   5.762 -0.3336  0.0200  1.0094
 6457WAT      O26533   3.364   6.545   4.525 -0.6409  0.1756  0.2467
 6457WAT     H126534   3.292   6.548   4.575 -1.8829 -1.4502 -1.3148
 6457WAT     H226535   3.332   6.550   4.443  1.1051  0.2007 -0.4699
 6457WAT    EPW26536   3.348   6.547   4.520  0.2053 -0.4288 -0.0804
 6458WAT      O26537   2.097   0.418   7.306 -0.3285  0.3373  0.0011
 6458WAT     H126538   2.030   0.447   7.353  0.9348  1.7810  1.0194
 6458WAT     H226539   2.086   0.458   7.229  0.4555  2.3204  0.8467
 6458WAT    EPW26540   2.086   0.428   7.301 -0.2721  0.4450 -0.0317
 6459WAT      O26541   3.462   5.999   6.483  0.3913 -0.4701 -0.1469
 6459WAT     H126542   3.472   6.080   6.454  2.2741 -1.1690 -1.6614
 6459WAT     H226543   3.417   5.959   6.419  0.8817 -1.0043 -0.1676
 6459WAT    EPW26544   3.457   6.005   6.469 -0.3686  0.1670 -0.0929
 6460WAT      O26545   2.630   1.583   4.372  0.0863 -0.2112  0.1363
 6460WAT     H126546   2.546   1.559   4.373  0.1290 -0.4115 -0.3351
 6460WAT     H226547   2.629   1.665   4.400 -0.1121 -0.6316  1.4300
 6460WAT    EPW26548   2.617   1.592   4.376  0.1697  0.1688 -1.0663
 6461WAT      O26549   5.005   1.060   7.185  0.4172 -0.0040 -0.1547
 6461WAT     H126550   5.089   1.082   7.179  0.4231  0.0995  0.2881
 6461WAT     H226551   4.982   1.088   7.264 -0.6037  1.9120 -1.0524
 6461WAT    EPW26552   5.014   1.067   7.196 -0.3679 -0.1683 -0.6711
 6462WAT      O26553   3.954   7.521   1.942  1.0234  0.0437  0.3807
 6462WAT     H126554   3.984   7.583   1.887 -0.6049  0.2765 -0.2831
 6462WAT     H226555   3.908   7.469   1.891  0.7242 -0.6020  1.2912
 6462WAT    EPW26556   3.952   7.523   1.926  0.0008 -0.6540 -0.3382
 6463WAT      O26557   4.956   7.301   3.909 -0.0616  0.4706  0.1848
 6463WAT     H126558   4.893   7.241   3.920 -0.2541  0.6759  0.2279
 6463WAT     H226559   4.953   7.318   3.823 -0.2050  0.6273  0.2193
 6463WAT    EPW26560   4.946   7.295   3.898 -0.2348 -0.4591  0.0564
 6464WAT      O26561   2.117   0.206   0.609 -0.2569  0.2420  0.0094
 6464WAT     H126562   2.039   0.185   0.578 -0.1200  1.0574 -0.9417
 6464WAT     H226563   2.172   0.157   0.563 -0.2173 -0.6376  0.9650
 6464WAT    EPW26564   2.114   0.196   0.597  0.0544 -0.3253 -0.3418
 6465WAT      O26565   1.827   4.576   2.810  0.2461  0.5335  0.1611
 6465WAT     H126566   1.756   4.536   2.777  1.0595 -0.3601 -0.5681
 6465WAT     H226567   1.802   4.659   2.816 -0.0082  0.7759 -2.7554
 6465WAT    EPW26568   1.813   4.582   2.806 -0.5805  0.3879  0.6386
 6466WAT      O26569   5.589   5.765   4.886  0.0707  0.1504 -0.2346
 6466WAT     H126570   5.581   5.679   4.871 -0.2511  0.1990 -0.3486
 6466WAT     H226571   5.628   5.795   4.814  2.4077 -0.2522  0.7542
 6466WAT    EPW26572   5.594   5.757   4.873  0.3843 -0.0539  0.3802
 6467WAT      O26573   4.809   4.545   7.256  0.1766  0.5984  0.2247
 6467WAT     H126574   4.844   4.618   7.225 -1.6807  1.0437 -0.9677
 6467WAT     H226575   4.842   4.482   7.205 -0.2791  0.9379 -0.4948
 6467WAT    EPW26576   4.819   4.546   7.244  0.0864 -0.0607 -0.4952
 6468WAT      O26577   0.080   4.221   6.867  0.5136 -0.0288  0.3959
 6468WAT     H126578   0.143   4.204   6.925  1.6534  1.8289 -0.2253
 6468WAT     H226579   0.042   4.143   6.856  3.4566 -1.5533 -0.1142
 6468WAT    EPW26580   0.084   4.207   6.874  0.3447  0.1568  0.0802
 6469WAT      O26581   4.007   4.021   7.612 -0.8811  0.1964 -0.2714
 6469WAT     H126582   4.019   3.935   7.603 -1.5427 -0.0485  0.9762
 6469WAT     H226583   3.922   4.032   7.594 -0.7331  0.6515 -0.7440
 6469WAT    EPW26584   3.996   4.010   7.608 -0.5875  0.3376  0.2399
 6470WAT      O26585   5.871   3.520   3.365 -0.2484  0.0912 -0.6604
 6470WAT     H126586   5.943   3.475   3.385  0.0299  0.3724 -1.0126
 6470WAT     H226587   5.902   3.595   3.332 -0.6929  0.8956  0.6766
 6470WAT    EPW26588   5.886   3.524   3.363  0.1682 -0.1439  0.4667
 6471WAT      O26589   5.903   3.213   0.473 -1.0248  0.2945 -0.2644
 6471WAT     H126590   5.847   3.153   0.503 -0.6889 -0.1925 -0.5981
 6471WAT     H226591   5.856   3.286   0.471 -1.0604  0.3641  1.4658
 6471WAT    EPW26592   5.888   3.215   0.477 -0.5519  0.1070 -0.1062
 6472WAT      O26593   4.858   0.235   0.844  0.5562 -0.0428  0.3136
 6472WAT     H126594   4.860   0.194   0.921  1.0098  0.3274  0.5071
 6472WAT     H226595   4.854   0.320   0.866 -1.3835  0.0065 -0.0793
 6472WAT    EPW26596   4.858   0.242   0.859  0.4432  0.4564 -0.3102
 6473WAT      O26597   4.537   0.400   2.429 -0.3325 -0.8847  0.1193
 6473WAT     H126598   4.618   0.384   2.400  0.5628  0.5146  1.6015
 6473WAT     H226599   4.499   0.322   2.431  1.6369 -1.8820  1.1470
 6473WAT    EPW26600   4.544   0.386   2.425  0.3514 -0.2440  0.4128
 6474WAT      O26601   7.475   0.760   3.915 -0.2581  0.0071  0.2510
 6474WAT     H126602   7.533   0.809   3.873 -0.6832  0.1980 -0.1251
 6474WAT     H226603   7.398   0.786   3.881 -0.6163  0.1997  1.1676
 6474WAT    EPW26604   7.472   0.771   3.904 -0.0942  0.0425  0.2253
 6475WAT      O26605   5.807   6.168   0.528 -0.3246  0.2092  0.2918
 6475WAT     H126606   5.843   6.163   0.607 -1.7215 -0.7760  0.8943
 6475WAT     H226607   5.790   6.253   0.518 -1.0222  0.2223  1.4731
 6475WAT    EPW26608   5.810   6.180   0.538  0.7456 -0.0230 -0.4999
 6476WAT      O26609   6.536   3.774   7.374  0.7679  0.1639 -0.0807
 6476WAT     H126610   6.552   3.813   7.450  0.7297 -1.4071  0.7735
 6476WAT     H226611   6.460   3.808   7.349  1.9750  2.6131 -0.7675
 6476WAT    EPW26612   6.528   3.785   7.381 -0.2712 -0.5460 -0.2707
 6477WAT      O26613   4.903   1.561   4.679  0.4410  0.1870 -0.2449
 6477WAT     H126614   4.947   1.499   4.722 -1.4878 -0.5077  0.8500
 6477WAT     H226615   4.827   1.565   4.721 -1.3234 -0.0233 -3.1446
 6477WAT    EPW26616   4.898   1.553   4.691  0.1679  0.2339  0.1160
 6478WAT      O26617   4.693   2.752   0.641  0.3770  0.1192 -0.5058
 6478WAT     H126618   4.741   2.690   0.601 -0.5137 -0.9246 -0.0187
 6478WAT     H226619   4.686   2.723   0.723  1.7505  1.9752  0.3378
 6478WAT    EPW26620   4.699   2.738   0.647  0.2062  0.1656 -0.0623
 6479WAT      O26621   2.363   0.397   0.096 -0.2815 -0.2205 -0.8771
 6479WAT     H126622   2.341   0.439   0.023  0.2201 -0.6865 -1.2994
 6479WAT     H226623   2.396   0.322   0.068 -0.1488 -0.4382 -0.1673
 6479WAT    EPW26624   2.364   0.392   0.081  0.4142 -0.7197  0.7425
 6480WAT      O26625   4.145   4.254   1.084 -0.3437  0.4693 -0.2906
 6480WAT     H126626   4.145   4.195   1.149 -0.8971 -0.6007 -1.2325
 6480WAT     H226627   4.145   4.206   1.012 -0.0103  1.6443 -1.1081
 6480WAT    EPW26628   4.145   4.238   1.083  0.0677  0.1870  0.2239
 6481WAT      O26629   4.998   0.794   2.650 -0.0163 -0.5649  0.2187
 6481WAT     H126630   5.069   0.838   2.676  0.2298 -0.1862 -1.0294
 6481WAT     H226631   4.932   0.836   2.688  0.2934  0.2878 -0.1626
 6481WAT    EPW26632   4.999   0.807   2.660 -0.4125  0.1224 -0.3847
 6482WAT      O26633   5.791   2.140   2.946  0.1601 -0.0847  0.1638
 6482WAT     H126634   5.825   2.102   2.875 -0.5398  1.1913 -0.8992
 6482WAT     H226635   5.860   2.174   2.986  0.5769 -0.9239  0.1842
 6482WAT    EPW26636   5.806   2.139   2.941  0.1285  0.2029 -0.5628
 6483WAT      O26637   2.439   3.822   1.718 -0.1142  0.0289 -0.2238
 6483WAT     H126638   2.397   3.890   1.754  1.0667  0.5737  0.1980
 6483WAT     H226639   2.377   3.781   1.673 -0.6292  2.1902 -1.6631
 6483WAT    EPW26640   2.424   3.826   1.717 -0.3937  0.2280  0.3468
 6484WAT      O26641   5.891   0.304   0.056  0.1209  0.1906  0.0350
 6484WAT     H126642   5.938   0.247   0.009 -0.0469  0.3698 -0.3531
 6484WAT     H226643   5.940   0.316   0.127  0.2426 -0.3015  0.0416
 6484WAT    EPW26644   5.905   0.297   0.060 -0.2384 -0.5358  0.8689
 6485WAT      O26645   3.085   7.241   3.889  0.2712 -0.1476  0.0176
 6485WAT     H126646   3.051   7.246   3.809 -1.5528 -0.3291  0.7386
 6485WAT     H226647   3.027   7.194   3.934  0.7405  0.7962  1.7100
 6485WAT    EPW26648   3.071   7.235   3.884  0.4714  0.1704 -0.3865
 6486WAT      O26649   6.955   4.311   4.408  0.0232  0.4101  0.5920
 6486WAT     H126650   6.994   4.361   4.348  0.9370 -2.7274 -1.6459
 6486WAT     H226651   7.009   4.317   4.477  1.6706  0.2807 -0.6173
 6486WAT    EPW26652   6.969   4.319   4.410  0.4591  0.1570 -0.3498
 6487WAT      O26653   4.868   2.697   6.252  0.2350  0.3883  0.1142
 6487WAT     H126654   4.794   2.744   6.251  0.4381  0.7232  0.3916
 6487WAT     H226655   4.845   2.623   6.291  0.2217  0.8041  0.9120
 6487WAT    EPW26656   4.854   2.693   6.258  0.8330 -0.2809 -0.1244
 6488WAT      O26657   4.091   7.115   7.490  0.5448  0.2104 -0.0128
 6488WAT     H126658   4.061   7.116   7.572 -0.1048  1.2714 -0.2399
 6488WAT     H226659   4.127   7.194   7.481 -0.9626  0.8039 -1.2715
 6488WAT    EPW26660   4.092   7.127   7.501  0.1957 -0.1278 -0.2401
 6489WAT      O26661   4.194   1.411   7.033 -0.4851 -0.2217  0.2221
 6489WAT     H126662   4.108   1.419   7.025 -0.4653 -0.3640 -0.1289
 6489WAT     H226663   4.225   1.454   6.964 -0.3563 -2.5778 -1.3126
 6489WAT    EPW26664   4.186   1.418   7.022 -0.8572 -0.5151  0.0467
 6490WAT      O26665   0.387   4.961   2.667  0.1921  0.0457 -0.0419
 6490WAT     H126666   0.416   4.973   2.748  0.1561 -0.6626  0.0787
 6490WAT     H226667   0.442   4.902   2.633 -2.2126 -3.0033  0.8880
 6490WAT    EPW26668   0.399   4.954   2.674  0.3873 -0.0812  0.5951
 6491WAT      O26669   2.291   3.182   1.328  0.0308 -0.0578  0.2770
 6491WAT     H126670   2.345   3.121   1.359 -0.9312 -0.8746  0.4024
 6491WAT     H226671   2.286   3.241   1.393  0.7648  0.0382  0.2531
 6491WAT    EPW26672   2.298   3.182   1.342 -0.0494  0.6862 -0.2853
 6492WAT      O26673   3.409   4.263   6.602 -0.3988 -0.0442  0.1248
 6492WAT     H126674   3.338   4.214   6.616  0.0886 -1.3535 -1.6367
 6492WAT     H226675   3.378   4.343   6.592 -1.7520 -0.7100 -1.3694
 6492WAT    EPW26676   3.394   4.267   6.603 -0.6320  0.3284 -0.0605
 6493WAT      O26677   3.014   2.477   4.898  0.0567  0.0713  0.3380
 6493WAT     H126678   3.087   2.516   4.926  1.5101 -1.2104 -1.3786
 6493WAT     H226679   2.950   2.526   4.930  1.7044  2.0812  0.7396
 6493WAT    EPW26680   3.015   2.490   4.907  0.0449  0.2796  0.3532
 6494WAT      O26681   4.137   6.975   1.950 -0.6982  0.1013 -0.1977
 6494WAT     H126682   4.067   6.953   1.903 -1.1921  0.0993  0.5232
 6494WAT     H226683   4.183   6.902   1.955 -1.7358 -0.5010  1.1676
 6494WAT    EPW26684   4.134   6.961   1.943  0.1366  0.2300  0.0060
 6495WAT      O26685   6.848   7.414   5.702  0.1880  0.4641  0.2215
 6495WAT     H126686   6.857   7.331   5.725 -2.4825  0.0948  0.2134
 6495WAT     H226687   6.800   7.448   5.766 -3.1407  0.6419 -2.1416
 6495WAT    EPW26688   6.843   7.407   5.715  0.2084 -0.0471 -0.1687
 6496WAT      O26689   0.367   7.329   7.379 -0.3941  0.2482 -0.5308
 6496WAT     H126690   0.450   7.338   7.354  0.1422 -1.1389  0.6097
 6496WAT     H226691   0.344   7.252   7.345 -0.1207 -0.9574  1.8440
 6496WAT    EPW26692   0.376   7.319   7.370 -0.8524  0.2628 -0.2527
 6497WAT      O26693   0.663   0.327   7.443  0.4191  0.1567 -0.7398
 6497WAT     H126694   0.596   0.383   7.440 -0.4995 -0.7817  0.9499
 6497WAT     H226695   0.671   0.300   7.361 -2.2840 -0.8221 -0.7706
 6497WAT    EPW26696   0.654   0.331   7.431 -0.1255  0.1276 -0.3046
 6498WAT      O26697   4.199   2.284   5.250  0.0703 -0.0784  0.0919
 6498WAT     H126698   4.281   2.273   5.278 -0.1006  0.4483  0.8391
 6498WAT     H226699   4.151   2.273   5.323 -0.4134  0.9596 -0.0529
 6498WAT    EPW26700   4.204   2.280   5.265  0.4975 -0.2935 -0.5522
 6499WAT      O26701   0.526   0.451   3.653 -0.2361 -1.1276 -0.5924
 6499WAT     H126702   0.459   0.400   3.677 -0.4164  0.0123  1.5813
 6499WAT     H226703   0.558   0.480   3.729  1.9385 -0.5983 -1.6155
 6499WAT    EPW26704   0.521   0.448   3.668  0.3079 -0.6302  0.3527
 6500WAT      O26705   3.188   5.758   2.004  0.4774 -0.0677 -0.3677
 6500WAT     H126706   3.114   5.713   2.021  0.8841 -0.2509  1.1401
 6500WAT     H226707   3.160   5.836   1.978 -0.4262  1.0845  3.3735
 6500WAT    EPW26708   3.173   5.763   2.003  0.6337  0.6670  0.6759
 6501WAT      O26709   0.873   1.327   4.077  0.0962 -0.9170 -0.4286
 6501WAT     H126710   0.904   1.253   4.043 -1.2051 -0.7386 -2.1738
 6501WAT     H226711   0.829   1.300   4.148  0.6612 -1.6525 -0.3451
 6501WAT    EPW26712   0.871   1.312   4.082 -0.0095  0.1349 -0.7753
 6502WAT      O26713   5.053   3.455   1.947 -0.3973 -0.5435 -1.0691
 6502WAT     H126714   5.047   3.478   2.030 -0.4736 -0.0380 -1.2142
 6502WAT     H226715   5.087   3.525   1.908  2.0952 -1.6420 -1.0600
 6502WAT    EPW26716   5.057   3.469   1.953 -0.2393  0.1440 -0.1796
 6503WAT      O26717   0.298   0.384   5.200  0.3486 -0.1758 -0.1232
 6503WAT     H126718   0.250   0.349   5.264 -1.1727  0.9241 -0.6100
 6503WAT     H226719   0.279   0.333   5.131 -2.3811  1.7755 -0.9975
 6503WAT    EPW26720   0.288   0.371   5.199  0.3046 -0.5721  0.0533
 6504WAT      O26721   1.235   0.927   1.565  0.3428  0.4187  0.9562
 6504WAT     H126722   1.298   0.916   1.625  0.3851  0.4774  0.9225
 6504WAT     H226723   1.255   1.003   1.528  1.0055 -0.1811  0.0470
 6504WAT    EPW26724   1.247   0.936   1.569  0.2869  0.0034  0.2872
 6505WAT      O26725   5.739   0.152   0.226 -0.1108 -1.0379  0.0884
 6505WAT     H126726   5.798   0.186   0.172 -0.3949  1.6315  1.2901
 6505WAT     H226727   5.786   0.097   0.275  0.5696 -1.8107 -1.3629
 6505WAT    EPW26728   5.755   0.149   0.226 -0.6328 -0.2755  0.2794
 6506WAT      O26729   3.169   6.282   5.673 -0.2365 -0.0413 -0.1885
 6506WAT     H126730   3.151   6.285   5.758 -0.0740  0.4835 -0.1715
 6506WAT     H226731   3.096   6.250   5.638 -1.4899  2.5815 -0.1906
 6506WAT    EPW26732   3.156   6.277   5.680  0.5927  0.1206  0.2794
 6507WAT      O26733   1.589   3.862   1.687  0.0242  0.0072 -0.1122
 6507WAT     H126734   1.510   3.830   1.708  0.0881  0.4677  0.9391
 6507WAT     H226735   1.639   3.837   1.754  0.4856  0.7319 -0.1741
 6507WAT    EPW26736   1.585   3.853   1.700  0.4753  0.3638  0.0645
 6508WAT      O26737   0.971   1.752   6.393  0.3801 -0.9080 -0.8357
 6508WAT     H126738   1.046   1.737   6.436  0.4090 -0.0585 -0.5755
 6508WAT     H226739   0.944   1.829   6.425  0.6683  0.0107 -2.6726
 6508WAT    EPW26740   0.978   1.761   6.404  0.1583  0.1586  0.1661
 6509WAT      O26741   5.677   3.806   0.195  0.3361 -0.2847 -0.1186
 6509WAT     H126742   5.593   3.809   0.173 -0.1679 -1.0751  1.5073
 6509WAT     H226743   5.701   3.724   0.177  1.1036  0.2266 -1.5943
 6509WAT    EPW26744   5.668   3.795   0.189  0.0124  0.2801  0.1875
 6510WAT      O26745   2.588   3.788   0.365 -0.0180  0.0455  0.4118
 6510WAT     H126746   2.619   3.721   0.319  1.7708  0.6441  0.6704
 6510WAT     H226747   2.573   3.754   0.444 -0.1175 -0.2804  0.2536
 6510WAT    EPW26748   2.591   3.773   0.370 -0.8548 -0.1634  0.9512
 6511WAT      O26749   6.781   1.589   3.201  0.2294 -0.4959 -0.5923
 6511WAT     H126750   6.785   1.675   3.212  1.3857 -0.3016 -2.0388
 6511WAT     H226751   6.697   1.570   3.212  0.0803  0.6964  0.4910
 6511WAT    EPW26752   6.769   1.599   3.204 -0.3230 -0.0707 -0.0285
 6512WAT      O26753   0.682   4.538   3.050  0.0361  0.1307 -0.3485
 6512WAT     H126754   0.759   4.557   3.012 -0.0443  2.1362  0.3822
 6512WAT     H226755   0.629   4.524   2.983  0.5617  0.7565 -0.9012
 6512WAT    EPW26756   0.686   4.538   3.035 -0.2866  0.3217 -0.1204
 6513WAT      O26757   1.481   0.711   3.224  0.0717 -0.7855  0.0684
 6513WAT     H126758   1.464   0.669   3.149 -0.1014 -1.2361  0.3607
 6513WAT     H226759   1.501   0.647   3.280 -1.1431 -0.5696  0.7777
 6513WAT    EPW26760   1.481   0.695   3.221 -0.5700  0.1644  0.2137
 6514WAT      O26761   1.816   5.816   2.119 -0.2880  0.3923 -0.2785
 6514WAT     H126762   1.743   5.820   2.167 -0.8225  0.2359 -1.0702
 6514WAT     H226763   1.878   5.839   2.176 -0.7387 -0.9950  0.8425
 6514WAT    EPW26764   1.815   5.820   2.135 -0.1421  0.3703  0.6931
 6515WAT      O26765   3.680   5.299   0.337 -0.2318  0.1562  0.1047
 6515WAT     H126766   3.609   5.254   0.317 -0.7409  1.0618 -0.1712
 6515WAT     H226767   3.733   5.286   0.269 -0.5702  0.3827 -0.1994
 6515WAT    EPW26768   3.678   5.290   0.324 -0.6252  0.2464 -0.0897
 6516WAT      O26769   5.637   2.417   5.649  1.0382 -0.3731  0.3095
 6516WAT     H126770   5.676   2.371   5.713  0.5575  0.0047  0.8883
 6516WAT     H226771   5.557   2.383   5.647  0.7569  0.2619  0.5698
 6516WAT    EPW26772   5.631   2.405   5.658 -0.1892  0.2610  0.2831
 6517WAT      O26773   5.038   7.259   1.661  0.6021  0.5325 -0.0818
 6517WAT     H126774   4.991   7.188   1.644  0.5745  0.7039 -0.7382
 6517WAT     H226775   5.010   7.284   1.740  0.5090 -0.0943  0.0881
 6517WAT    EPW26776   5.027   7.253   1.670  0.1037  0.0102 -0.0389
 6518WAT      O26777   0.770   6.075   4.484 -0.2888 -0.5686  0.4652
 6518WAT     H126778   0.775   6.044   4.566 -1.1382 -0.0735  0.7114
 6518WAT     H226779   0.838   6.037   4.444 -1.3890 -2.9907  0.6861
 6518WAT    EPW26780   0.781   6.065   4.490  0.2566  0.9063  0.0076
 6519WAT      O26781   2.986   6.690   7.029 -0.3329  0.3147 -0.1065
 6519WAT     H126782   3.011   6.715   6.950  2.9883 -2.0781 -0.0180
 6519WAT     H226783   3.052   6.714   7.080 -1.6484  0.3143  1.6991
 6519WAT    EPW26784   2.999   6.697   7.025 -0.3620 -0.3190 -0.3477
 6520WAT      O26785   2.001   3.435   3.876 -0.0860  0.4614  0.0153
 6520WAT     H126786   2.062   3.498   3.885  0.2840  0.1183 -0.0386
 6520WAT     H226787   2.017   3.403   3.796  0.1074 -0.0850  0.2671
 6520WAT    EPW26788   2.013   3.440   3.866  0.5392  0.1300  0.3715
 6521WAT      O26789   4.575   1.302   5.404  0.0286  0.5481  0.2003
 6521WAT     H126790   4.604   1.385   5.405 -0.7585  0.8435 -0.0985
 6521WAT     H226791   4.647   1.255   5.388  0.6988  1.0668  1.5147
 6521WAT    EPW26792   4.590   1.308   5.401 -1.0865 -0.0901  0.2888
 6522WAT      O26793   2.475   5.999   0.148  0.4441 -0.4317  0.0150
 6522WAT     H126794   2.396   6.013   0.184  1.0182 -0.5098  1.3887
 6522WAT     H226795   2.458   5.990   0.063 -0.9444  0.2277  0.1978
 6522WAT    EPW26796   2.461   5.999   0.141  0.0624  0.3282  0.1194
 6523WAT      O26797   6.646   4.351   1.030  0.1326 -0.8043 -0.2394
 6523WAT     H126798   6.587   4.291   1.010 -1.2550  0.7173 -0.9424
 6523WAT     H226799   6.682   4.372   0.954 -0.9486  0.7568 -0.3740
 6523WAT    EPW26800   6.642   4.345   1.016 -0.7658  0.6075  0.3261
 6524WAT      O26801   2.420   4.675   6.524 -0.4685  0.1663 -0.0703
 6524WAT     H126802   2.427   4.659   6.439 -2.0107 -0.4749 -0.1019
 6524WAT     H226803   2.357   4.621   6.551 -1.7486  2.0531  0.9798
 6524WAT    EPW26804   2.412   4.665   6.515 -0.3828  0.6254  0.4375
 6525WAT      O26805   0.319   1.893   0.974 -0.4607  0.1396  0.0886
 6525WAT     H126806   0.284   1.958   1.020  1.0150  0.7561  0.3891
 6525WAT     H226807   0.271   1.824   0.997 -1.0286  0.8073  1.0085
 6525WAT    EPW26808   0.307   1.893   0.984 -0.1748  0.0754  0.5485
 6526WAT      O26809   1.794   4.505   2.073  0.0164  0.6635  0.2544
 6526WAT     H126810   1.731   4.463   2.031  0.0289  0.2319  0.6548
 6526WAT     H226811   1.823   4.563   2.015 -0.4391  0.5550 -0.0840
 6526WAT    EPW26812   1.789   4.507   2.058 -0.3484  0.0293 -0.3173
 6527WAT      O26813   7.601   1.420   3.841 -0.0748  0.6473 -0.1563
 6527WAT     H126814   7.630   1.488   3.887 -0.9221  0.5469  0.5643
 6527WAT     H226815   7.587   1.358   3.901 -1.9339  0.7586 -0.4064
 6527WAT    EPW26816   7.603   1.421   3.856 -0.5701  0.9723 -0.3706
 6528WAT      O26817   0.981   6.568   4.039 -0.0279  0.2926  0.2869
 6528WAT     H126818   0.966   6.645   4.078  0.4175 -0.3245  1.7668
 6528WAT     H226819   1.008   6.517   4.105 -0.1788 -1.0952 -0.6814
 6528WAT    EPW26820   0.983   6.572   4.055  0.0257 -0.2076 -0.0436
 6529WAT      O26821   3.754   1.269   4.455  0.3514 -0.1005  0.5526
 6529WAT     H126822   3.744   1.264   4.541 -0.7637  0.1461  0.4505
 6529WAT     H226823   3.832   1.233   4.442 -0.6446 -2.8923  1.3794
 6529WAT    EPW26824   3.764   1.263   4.466 -0.0769 -0.0474  0.8297
 6530WAT      O26825   3.204   0.035   6.245 -0.2040 -0.0458 -0.0772
 6530WAT     H126826   3.187  -0.045   6.273  2.2340 -0.1119  1.5186
 6530WAT     H226827   3.129   0.078   6.258 -1.1476 -1.7182  0.2754
 6530WAT    EPW26828   3.190   0.030   6.251 -0.1370 -0.0190  0.1710
 6531WAT      O26829   0.290   0.821   4.412 -0.2510  0.2658  0.2362
 6531WAT     H126830   0.302   0.908   4.415 -0.1366  0.3219 -1.3147
 6531WAT     H226831   0.343   0.791   4.476  0.2454  1.2792  0.3235
 6531WAT    EPW26832   0.300   0.830   4.422 -0.2074 -0.1204 -0.1024
 6532WAT      O26833   2.844   6.408   7.268 -0.0919 -0.7712 -0.1436
 6532WAT     H126834   2.780   6.444   7.314  0.9355 -0.6163  1.2449
 6532WAT     H226835   2.832   6.322   7.280  0.7048 -0.7295  1.2947
 6532WAT    EPW26836   2.833   6.400   7.277  0.4246 -0.7537  0.4032
 6533WAT      O26837   6.281   4.466   7.583  0.6241 -0.5236 -0.5768
 6533WAT     H126838   6.213   4.519   7.594  0.6764 -0.1060 -2.0408
 6533WAT     H226839   6.266   4.401   7.640 -0.4358  0.0834 -0.1328
 6533WAT    EPW26840   6.269   4.464   7.593 -0.0099 -0.4199 -0.1461
 6534WAT      O26841   1.943   1.821   2.598  0.4647  0.2913 -0.9004
 6534WAT     H126842   1.950   1.775   2.524  1.1258  2.3694 -2.2105
 6534WAT     H226843   1.941   1.759   2.660 -0.4783 -1.5454 -2.6307
 6534WAT    EPW26844   1.944   1.805   2.597 -0.0110 -0.3893  0.9881
 6535WAT      O26845   0.636   1.732   5.871  0.0744 -0.5689  0.3691
 6535WAT     H126846   0.635   1.683   5.798  2.1210 -1.4716  0.8839
 6535WAT     H226847   0.644   1.813   5.840  0.6964 -0.9173 -0.4182
 6535WAT    EPW26848   0.637   1.736   5.855  0.0718 -0.0406 -0.5617
 6536WAT      O26849   5.422   2.134   3.242  0.1791  0.2500 -0.3963
 6536WAT     H126850   5.470   2.063   3.223 -0.2119 -0.1461  0.0620
 6536WAT     H226851   5.412   2.173   3.164  0.3909 -0.2035 -0.6574
 6536WAT    EPW26852   5.428   2.129   3.228  0.6467 -0.2007  0.4441
 6537WAT      O26853   1.331   1.704   0.248  0.0397  0.0021  0.3216
 6537WAT     H126854   1.407   1.709   0.206 -0.3241  2.1295 -0.2008
 6537WAT     H226855   1.325   1.620   0.271  2.2657 -0.3148 -0.1016
 6537WAT    EPW26856   1.341   1.692   0.245 -0.0470 -0.2600  0.4698
 6538WAT      O26857   2.757   7.416   1.714 -0.1610  0.2057 -0.2687
 6538WAT     H126858   2.712   7.364   1.659 -2.3735  0.3458  1.2674
 6538WAT     H226859   2.696   7.469   1.746  1.2886  0.9813  1.3570
 6538WAT    EPW26860   2.741   7.416   1.710 -0.2237 -0.3985  0.3394
 6539WAT      O26861   6.579   1.217   1.647  0.1067  0.0635 -0.4008
 6539WAT     H126862   6.536   1.268   1.591 -0.3731 -0.3648 -0.4293
 6539WAT     H226863   6.587   1.142   1.604 -0.0873 -0.2035  0.0293
 6539WAT    EPW26864   6.574   1.214   1.632 -0.7048 -0.6320  0.3780
 6540WAT      O26865   2.581   5.283   5.479  0.5365  0.5336 -0.3893
 6540WAT     H126866   2.531   5.260   5.547  0.5116  2.3852  0.2783
 6540WAT     H226867   2.556   5.230   5.415 -1.9787  1.0823  0.0605
 6540WAT    EPW26868   2.570   5.272   5.480 -0.3531  0.4445 -0.4444
 6541WAT      O26869   4.510   0.507   1.228 -0.0055  0.2912  0.6526
 6541WAT     H126870   4.451   0.512   1.164  1.4203  1.1858 -0.6415
 6541WAT     H226871   4.496   0.428   1.263  1.2783 -1.7162 -2.9066
 6541WAT    EPW26872   4.499   0.496   1.224  0.0554 -0.2992  0.0213
 6542WAT      O26873   2.624   0.636   5.730  0.0189 -0.8001  0.3178
 6542WAT     H126874   2.617   0.723   5.735 -2.6861 -0.8171 -1.0624
 6542WAT     H226875   2.558   0.607   5.780 -1.2213 -1.8626 -1.7678
 6542WAT    EPW26876   2.613   0.645   5.738  0.1048 -0.1670 -0.2055
 6543WAT      O26877   4.343   1.215   5.234  0.0680  0.6481 -1.0542
 6543WAT     H126878   4.425   1.240   5.247  0.0709  1.5230 -2.5123
 6543WAT     H226879   4.344   1.181   5.154 -0.7122 -0.7140 -0.5197
 6543WAT    EPW26880   4.355   1.214   5.224 -0.0776 -0.1087 -0.0872
 6544WAT      O26881   1.153   2.953   7.396 -0.4800  0.4018 -0.0887
 6544WAT     H126882   1.070   2.937   7.418 -0.1130 -1.1272  0.3068
 6544WAT     H226883   1.197   2.888   7.434  0.9453  1.3639 -0.0232
 6544WAT    EPW26884   1.147   2.941   7.405  0.4369  0.3230 -0.1628
 6545WAT      O26885   1.561   0.960   6.707 -0.5542 -0.7199  0.5267
 6545WAT     H126886   1.522   1.037   6.706 -1.5718 -1.1335 -2.6505
 6545WAT     H226887   1.627   0.969   6.652  0.2696 -1.7102  1.3009
 6545WAT    EPW26888   1.565   0.973   6.699  0.0977 -0.2800 -0.9260
 6546WAT      O26889   6.443   0.024   2.694 -0.2192  0.0955 -0.2154
 6546WAT     H126890   6.371   0.072   2.706 -2.0360 -2.8142  2.1203
 6546WAT     H226891   6.479   0.022   2.774  0.6794 -1.0502 -0.6219
 6546WAT    EPW26892   6.438   0.031   2.708 -0.6474 -0.1471  0.2662
 6547WAT      O26893   5.001   4.617   1.158  0.4773 -0.2854  0.7018
 6547WAT     H126894   5.030   4.667   1.093 -1.9633  1.7979  1.0649
 6547WAT     H226895   4.992   4.538   1.121  3.9011 -0.4973 -0.0188
 6547WAT    EPW26896   5.004   4.613   1.143  0.3311  0.3290 -0.2056
 6548WAT      O26897   2.569   5.345   4.374  0.7159 -0.4123  0.3166
 6548WAT     H126898   2.518   5.320   4.440  1.7745  0.5752  1.5682
 6548WAT     H226899   2.630   5.395   4.413  1.0476  0.6808 -1.4919
 6548WAT    EPW26900   2.570   5.349   4.389  0.2936  0.0665 -0.0754
 6549WAT      O26901   6.734   2.109   6.352  0.2706  0.5108  0.1563
 6549WAT     H126902   6.776   2.185   6.361  1.7770 -0.4462  2.1964
 6549WAT     H226903   6.667   2.128   6.300  2.0100  2.6411 -1.4886
 6549WAT    EPW26904   6.730   2.123   6.346 -0.2103  0.7981 -0.4027
 6550WAT      O26905   5.278   4.922   4.496  0.1625  0.2578  0.0212
 6550WAT     H126906   5.278   4.953   4.414 -0.4522  0.2945  0.0319
 6550WAT     H226907   5.361   4.901   4.509 -0.0166 -1.5815 -1.3260
 6550WAT    EPW26908   5.290   4.924   4.486  0.1091 -0.1189 -0.1224
 6551WAT      O26909   4.297   7.081   3.238 -0.2160 -0.3803  0.6482
 6551WAT     H126910   4.343   7.053   3.306  1.6681 -1.0482 -0.8209
 6551WAT     H226911   4.330   7.160   3.222 -1.2848  0.1671  1.0205
 6551WAT    EPW26912   4.309   7.088   3.245  0.1550  0.7477  0.2547
 6552WAT      O26913   7.539   6.506   5.671  0.0241 -0.4043 -0.4473
 6552WAT     H126914   7.613   6.504   5.717  1.1128  1.3973 -2.0102
 6552WAT     H226915   7.564   6.483   5.591 -1.5878 -2.0752 -0.5457
 6552WAT    EPW26916   7.554   6.502   5.666  0.2874  0.0941  0.0211
 6553WAT      O26917   6.983   5.463   0.501 -0.2123  0.8701 -0.0434
 6553WAT     H126918   7.031   5.472   0.573 -0.6282 -0.5742  0.4514
 6553WAT     H226919   6.925   5.528   0.506  0.1969  1.1976  0.5555
 6553WAT    EPW26920   6.981   5.474   0.512 -0.0680 -0.1650  0.1729
 6554WAT      O26921   5.354   1.140   4.669 -0.4326 -0.3599 -0.1110
 6554WAT     H126922   5.441   1.145   4.663 -0.4485 -1.1636 -1.8248
 6554WAT     H226923   5.339   1.130   4.754  1.3884 -3.2751  0.0042
 6554WAT    EPW26924   5.365   1.139   4.681 -0.0144 -0.2596 -0.1281
 6555WAT      O26925   1.449   1.184   0.270  0.2802  0.0560 -0.0113
 6555WAT     H126926   1.531   1.185   0.240  0.9090 -0.5172  1.5908
 6555WAT     H226927   1.456   1.147   0.348 -1.8209 -1.8929 -0.6345
 6555WAT    EPW26928   1.462   1.179   0.277 -0.4603  0.3659  0.2133
 6556WAT      O26929   3.681   3.513   2.533  0.0816 -0.0833 -0.2011
 6556WAT     H126930   3.682   3.480   2.614 -0.0856 -0.7637 -0.4682
 6556WAT     H226931   3.755   3.485   2.498  0.3303  0.5230 -0.1675
 6556WAT    EPW26932   3.692   3.504   2.540 -0.3837  0.3607  0.4830
 6557WAT      O26933   7.595   4.931   1.980 -0.0043 -0.0283  0.5392
 6557WAT     H126934   7.581   4.878   1.913  0.3936  4.4175 -3.6333
 6557WAT     H226935   7.666   4.976   1.957 -0.1289  2.1529  3.7120
 6557WAT    EPW26936   7.603   4.930   1.967  0.0638  0.0590 -0.4322
 6558WAT      O26937   6.196   1.765   7.190 -0.0232  0.2916  0.7341
 6558WAT     H126938   6.114   1.768   7.161  0.3886 -0.8675 -0.6631
 6558WAT     H226939   6.212   1.847   7.214 -2.1199  0.2287  2.6907
 6558WAT    EPW26940   6.186   1.777   7.189  0.7345  0.7321  0.3051
 6559WAT      O26941   5.936   3.316   7.362 -0.3589 -0.2636  0.3421
 6559WAT     H126942   5.945   3.285   7.281  0.8733  1.7707 -0.3546
 6559WAT     H226943   5.854   3.294   7.382 -1.1892  0.3928 -2.0037
 6559WAT    EPW26944   5.925   3.308   7.353 -0.3829 -0.7587 -0.4411
 6560WAT      O26945   4.273   5.825   4.827 -0.2117 -0.4779 -0.6688
 6560WAT     H126946   4.327   5.773   4.871  0.3005  0.0092 -0.7089
 6560WAT     H226947   4.300   5.905   4.848  1.3300 -0.1913 -3.3794
 6560WAT    EPW26948   4.285   5.829   4.836  0.2067  0.6196  0.4355
 6561WAT      O26949   1.988   3.611   6.716 -0.3404  0.2125 -0.1644
 6561WAT     H126950   1.982   3.524   6.714  0.1124  0.1534  0.5907
 6561WAT     H226951   2.037   3.626   6.786 -1.0817  1.1193  0.1770
 6561WAT    EPW26952   1.994   3.600   6.726 -0.0967  0.1473  0.0531
 6562WAT      O26953   5.071   5.803   1.717  0.4436 -0.2514  0.4955
 6562WAT     H126954   5.117   5.751   1.664 -0.1522  1.0089 -1.3648
 6562WAT     H226955   5.085   5.883   1.685 -1.4353  0.3691  1.0784
 6562WAT    EPW26956   5.080   5.807   1.704 -0.5830 -0.1721  0.0493
 6563WAT      O26957   2.836   3.295   6.814  0.5441  0.2130 -0.0380
 6563WAT     H126958   2.909   3.247   6.823  0.4521  0.0356 -0.2216
 6563WAT     H226959   2.772   3.235   6.818  0.2908  0.5386  1.8987
 6563WAT    EPW26960   2.838   3.279   6.816 -0.3781  0.0776  0.4131
 6564WAT      O26961   1.328   6.000   5.516  0.1371  0.3512 -0.0500
 6564WAT     H126962   1.357   5.934   5.565 -0.9013  1.1740  1.7807
 6564WAT     H226963   1.334   6.069   5.569 -0.2400  1.4702 -1.3961
 6564WAT    EPW26964   1.333   6.000   5.531  0.1839 -0.4199 -0.6476
 6565WAT      O26965   3.332   0.205   7.478 -0.2641 -0.2697 -0.2467
 6565WAT     H126966   3.382   0.236   7.542  0.9882 -0.4320 -1.1032
 6565WAT     H226967   3.264   0.170   7.520  0.4186 -0.2012  0.9662
 6565WAT    EPW26968   3.329   0.205   7.494  0.4460 -0.3569 -0.5232
 6566WAT      O26969   1.078   5.042   3.893 -0.0944 -0.5714  0.4395
 6566WAT     H126970   1.078   5.069   3.810 -1.2535  0.7638  0.8217
 6566WAT     H226971   1.044   4.962   3.889 -0.3354 -0.4399 -0.3616
 6566WAT    EPW26972   1.073   5.034   3.880  0.8554  0.6274  0.0358
 6567WAT      O26973   5.211   2.035   6.109 -1.1720  1.0394  0.8743
 6567WAT     H126974   5.289   2.001   6.129 -0.9840  1.0594  0.1854
 6567WAT     H226975   5.156   1.995   6.164 -1.9181 -4.4375 -3.0706
 6567WAT    EPW26976   5.214   2.024   6.120 -0.3306  0.1517  0.0212
 6568WAT      O26977   6.223   3.789   2.664  0.4388  0.0528  0.5538
 6568WAT     H126978   6.146   3.816   2.695  0.4828  0.2266  0.5113
 6568WAT     H226979   6.248   3.854   2.611  0.2768 -0.3216  0.0095
 6568WAT    EPW26980   6.215   3.802   2.660 -0.4674  0.4353 -0.1843
 6569WAT      O26981   1.288   5.098   0.170  0.0558 -0.1188  0.2813
 6569WAT     H126982   1.343   5.051   0.121  0.0243 -0.3549  0.4754
 6569WAT     H226983   1.210   5.068   0.148 -0.1205  1.1876 -1.0658
 6569WAT    EPW26984   1.285   5.087   0.159 -0.0036 -0.4850 -0.0095
 6570WAT      O26985   6.857   7.565   0.337 -0.8449  0.2322  0.4498
 6570WAT     H126986   6.809   7.581   0.266  0.2714 -0.0711 -0.3994
 6570WAT     H226987   6.899   7.491   0.318  2.8546  2.3165 -0.5266
 6570WAT    EPW26988   6.856   7.557   0.324  0.4295  0.1664  0.5429
 6571WAT      O26989   3.106   4.114   3.467 -0.5069  0.2760 -0.1371
 6571WAT     H126990   3.091   4.199   3.454  0.9636  0.9104  1.7825
 6571WAT     H226991   3.096   4.079   3.388 -1.4810  2.1701 -0.9187
 6571WAT    EPW26992   3.103   4.121   3.453 -0.4303 -0.2077  0.2527
 6572WAT      O26993   1.873   1.808   0.078  0.7406 -0.2341 -0.2972
 6572WAT     H126994   1.909   1.740   0.036  2.8667  0.9719 -0.5629
 6572WAT     H226995   1.853   1.864   0.015  2.4331  0.8942  0.0960
 6572WAT    EPW26996   1.875   1.806   0.063 -0.1306 -0.0311  0.1154
 6573WAT      O26997   3.689   3.694   7.055  0.0920  0.1280 -0.1852
 6573WAT     H126998   3.662   3.640   6.992 -1.5284  1.5975 -0.8430
 6573WAT     H226999   3.615   3.726   7.088  0.9708  1.8203  0.2682
 6573WAT    EPW27000   3.674   3.691   7.051 -0.0028  0.2146 -0.1359
 6574WAT      O27001   1.564   6.993   2.903 -0.0752  0.3254  0.4202
 6574WAT     H127002   1.519   7.052   2.857  0.2772 -0.1461 -0.5613
 6574WAT     H227003   1.604   7.040   2.964 -0.6089  0.9608  0.2866
 6574WAT    EPW27004   1.564   7.008   2.905 -0.0932  0.0689 -0.2470
 6575WAT      O27005   5.654   1.721   2.332 -0.7995 -0.3351  0.3383
 6575WAT     H127006   5.573   1.710   2.302 -1.6221  1.7013  1.6090
 6575WAT     H227007   5.666   1.808   2.328  1.1298 -0.5399  0.6654
 6575WAT    EPW27008   5.644   1.732   2.327 -0.0629 -0.0027 -0.3625
 6576WAT      O27009   1.269   0.756   3.607  0.3541  0.2320  0.0102
 6576WAT     H127010   1.354   0.751   3.587 -0.0192  0.5323 -1.8126
 6576WAT     H227011   1.229   0.741   3.532 -1.2002  1.6402  0.4912
 6576WAT    EPW27012   1.276   0.753   3.593  0.2620 -0.0418 -0.3717
 6577WAT      O27013   5.038   1.655   0.166 -0.1373 -0.1822 -0.0157
 6577WAT     H127014   5.015   1.688   0.244 -0.9947  0.5787 -0.5710
 6577WAT     H227015   5.103   1.707   0.140 -0.8785  0.5334 -0.4811
 6577WAT    EPW27016   5.044   1.668   0.174  0.0531  0.2519 -0.2133
 6578WAT      O27017   3.823   5.833   2.009 -0.4323 -0.1076  0.3381
 6578WAT     H127018   3.893   5.811   2.056 -0.7911 -0.6356  0.6317
 6578WAT     H227019   3.756   5.813   2.061 -0.8557 -1.1794 -0.5821
 6578WAT    EPW27020   3.824   5.827   2.023 -0.3176 -1.4501 -0.0244
 6579WAT      O27021   5.540   0.028   5.785  0.0882 -0.3908  0.1712
 6579WAT     H127022   5.615   0.072   5.776  1.2618 -2.5717 -2.4659
 6579WAT     H227023   5.546  -0.006   5.866  1.2407  0.6406  0.5503
 6579WAT    EPW27024   5.552   0.029   5.796 -0.2325 -0.3609  0.2989
 6580WAT      O27025   5.757   2.660   1.188 -0.1356  0.1211 -0.2608
 6580WAT     H127026   5.765   2.741   1.219  1.0696  0.1677 -0.6640
 6580WAT     H227027   5.830   2.648   1.141 -0.0881 -1.3379  0.1375
 6580WAT    EPW27028   5.769   2.670   1.186 -0.1164 -0.3597 -0.1944
 6581WAT      O27029   6.009   6.971   7.207 -0.1830 -0.1133 -0.0876
 6581WAT     H127030   6.070   6.959   7.146  0.7464 -0.7567  0.9257
 6581WAT     H227031   6.055   6.993   7.278 -0.8885 -2.6028  1.2749
 6581WAT    EPW27032   6.025   6.973   7.208 -1.0594 -0.1168 -0.3197
 6582WAT      O27033   1.272   4.045   0.129  0.2932  0.3261 -0.7145
 6582WAT     H127034   1.326   3.980   0.151 -0.6598 -0.1334  0.3647
 6582WAT     H227035   1.324   4.101   0.086  1.2095 -0.9650 -1.3584
 6582WAT    EPW27036   1.288   4.044   0.126  0.0707 -0.0210  0.3880
 6583WAT      O27037   5.709   7.382   7.290  0.5234  0.1435  0.2709
 6583WAT     H127038   5.643   7.339   7.254  0.5715  0.4148 -0.1516
 6583WAT     H227039   5.687   7.388   7.375  0.6068 -0.8586  0.3752
 6583WAT    EPW27040   5.696   7.377   7.298  0.1189 -0.4223 -0.8258
 6584WAT      O27041   6.349   6.997   6.070  0.1126  0.2714 -0.0705
 6584WAT     H127042   6.435   7.009   6.063  0.2590 -0.0112  1.1037
 6584WAT     H227043   6.321   7.069   6.109 -0.9921  2.7626 -4.7341
 6584WAT    EPW27044   6.358   7.009   6.074  0.4765 -0.5634 -0.0059
 6585WAT      O27045   5.012   3.869   5.686  0.5487 -0.4180  0.3289
 6585WAT     H127046   4.940   3.853   5.638  0.4070  0.2888  0.2954
 6585WAT     H227047   5.055   3.929   5.639  1.4808 -1.2800  0.0423
 6585WAT    EPW27048   5.008   3.876   5.672 -0.7845  0.8847 -0.5613
 6586WAT      O27049   2.763   5.365   2.976 -0.3427  0.5882  0.3063
 6586WAT     H127050   2.845   5.336   2.982 -0.3568 -0.4809 -2.7540
 6586WAT     H227051   2.716   5.292   2.978 -1.0160  1.0016 -0.2653
 6586WAT    EPW27052   2.768   5.350   2.977  0.0203  0.1126  0.6275
 6587WAT      O27053   6.978   0.203   6.448  0.1508 -0.4620 -0.0668
 6587WAT     H127054   7.059   0.233   6.432 -0.3916  1.1045 -0.0685
 6587WAT     H227055   6.984   0.172   6.530  0.4476  0.9163  0.4708
 6587WAT    EPW27056   6.991   0.203   6.458 -0.0422  0.4570  0.1308
 6588WAT      O27057   0.159   5.174   3.598  0.0149  0.4974 -0.4569
 6588WAT     H127058   0.166   5.219   3.672  0.0426  0.6596 -0.5572
 6588WAT     H227059   0.118   5.101   3.622  0.1589  0.4833 -0.2553
 6588WAT    EPW27060   0.154   5.170   3.613 -0.0853  0.1243  0.5279
 6589WAT      O27061   2.506   6.918   4.507  0.2290  0.1147  0.5315
 6589WAT     H127062   2.456   6.858   4.469  0.6138  0.5208 -0.6682
 6589WAT     H227063   2.587   6.886   4.497  0.2908 -0.1408  1.7219
 6589WAT    EPW27064   2.510   6.904   4.500 -0.3566  0.1771 -0.3559
 6590WAT      O27065   0.377   3.943   3.781 -0.5833 -0.3175 -0.6621
 6590WAT     H127066   0.417   3.905   3.714  0.3519 -0.1155 -0.2289
 6590WAT     H227067   0.414   3.906   3.851 -1.2964 -0.2735 -0.2490
 6590WAT    EPW27068   0.388   3.932   3.781 -0.1152  0.0145  0.4556
 6591WAT      O27069   2.427   6.095   5.430 -0.2172 -0.0525  0.0818
 6591WAT     H127070   2.470   6.168   5.450 -0.4813  0.4303 -1.0336
 6591WAT     H227071   2.488   6.032   5.438 -0.2205  0.1297  1.9749
 6591WAT    EPW27072   2.442   6.096   5.434 -0.3173  0.1556 -0.5636
 6592WAT      O27073   5.041   7.095   6.515  0.0259  0.1646 -0.2319
 6592WAT     H127074   5.022   7.012   6.499 -0.4280  0.2657 -0.2312
 6592WAT     H227075   5.046   7.099   6.602  0.5691  0.0290 -0.2538
 6592WAT    EPW27076   5.039   7.083   6.526  0.1228  0.0126  0.5163
 6593WAT      O27077   6.814   3.892   3.462  0.3980 -0.4205  0.2817
 6593WAT     H127078   6.853   3.967   3.438  0.1463 -0.3857 -0.0179
 6593WAT     H227079   6.792   3.855   3.386  1.3221 -1.2307  0.3888
 6593WAT    EPW27080   6.817   3.898   3.448  0.3525 -0.1106 -0.2645
 6594WAT      O27081   6.137   5.560   0.385  0.4404 -0.1428 -0.6173
 6594WAT     H127082   6.155   5.475   0.379  0.0892 -0.5112  2.1194
 6594WAT     H227083   6.050   5.562   0.380  0.2721 -0.2739  1.3722
 6594WAT    EPW27084   6.127   5.548   0.384  0.3536  0.2198  0.2551
 6595WAT      O27085   1.036   5.496   5.935 -0.0704  0.1048 -0.0097
 6595WAT     H127086   1.007   5.569   5.974 -0.5810 -0.1587  0.1129
 6595WAT     H227087   1.087   5.459   5.995 -0.1623  0.1368  0.0872
 6595WAT    EPW27088   1.039   5.502   5.949 -0.4031 -0.2537  0.3839
 6596WAT      O27089   1.350   4.249   5.174  0.6868  0.1004  0.0278
 6596WAT     H127090   1.366   4.270   5.091  0.6154 -0.5891 -0.1664
 6596WAT     H227091   1.323   4.166   5.169 -2.2395  0.9002  0.4012
 6596WAT    EPW27092   1.348   4.240   5.161  0.7512  0.0623 -0.6734
 6597WAT      O27093   3.598   7.050   4.515 -0.4583 -0.0708 -0.4115
 6597WAT     H127094   3.564   6.971   4.502 -1.0504  0.4661 -2.4921
 6597WAT     H227095   3.534   7.104   4.490  0.2343  1.0581  0.1873
 6597WAT    EPW27096   3.583   7.046   4.509  0.1379  0.0280  0.1140
 6598WAT      O27097   0.864   2.210   1.694  0.2772 -0.0506  0.2663
 6598WAT     H127098   0.881   2.295   1.708 -1.8583  0.5654 -0.4693
 6598WAT     H227099   0.810   2.211   1.625 -0.2993 -1.9760  0.6360
 6598WAT    EPW27100   0.859   2.223   1.686  0.6692  0.4836  0.0188
 6599WAT      O27101   6.371   0.121   3.849 -0.2641  0.1663 -0.1201
 6599WAT     H127102   6.298   0.161   3.822 -0.2245 -0.8164 -1.7918
 6599WAT     H227103   6.435   0.167   3.811 -0.2370 -1.7145 -2.5644
 6599WAT    EPW27104   6.370   0.134   3.840 -0.1132  0.8647 -0.1125
 6600WAT      O27105   0.863   5.699   3.952  0.0072  0.2664 -0.1423
 6600WAT     H127106   0.932   5.747   3.927  1.0664 -1.6011 -1.0136
 6600WAT     H227107   0.873   5.692   4.038  0.6943  0.3335 -0.2119
 6600WAT    EPW27108   0.875   5.705   3.961  0.7161  0.2361 -0.3815
 6601WAT      O27109   7.112   0.049   4.295 -0.5603  0.1414  0.1937
 6601WAT     H127110   7.169   0.072   4.357 -2.3978  0.3690  1.9087
 6601WAT     H227111   7.139   0.093   4.225  1.2595  0.3406  0.9772
 6601WAT    EPW27112   7.124   0.059   4.293  0.0357  0.1801 -0.1100
 6602WAT      O27113   3.503   3.825   7.466 -0.3656 -0.0446  0.3643
 6602WAT     H127114   3.482   3.814   7.382 -0.8295  0.5768  0.3913
 6602WAT     H227115   3.452   3.891   7.492  0.4512  0.3993  0.8864
 6602WAT    EPW27116   3.492   3.833   7.458  0.3116  0.3958  0.4711
 6603WAT      O27117   3.667   5.243   1.029 -0.2727 -0.5238  0.4882
 6603WAT     H127118   3.636   5.276   1.103 -1.3925  0.7596 -0.5110
 6603WAT     H227119   3.752   5.265   1.030 -0.3875 -0.0970  1.1445
 6603WAT    EPW27120   3.675   5.251   1.040 -0.3970 -0.2091  0.3981
 6604WAT      O27121   4.299   0.633   0.111  0.4058 -0.3231  0.2609
 6604WAT     H127122   4.269   0.697   0.059  0.2190  0.2581  1.0461
 6604WAT     H227123   4.349   0.585   0.059 -0.4764 -0.2741 -0.6647
 6604WAT    EPW27124   4.302   0.636   0.096 -0.3172  0.0321  0.5402
 6605WAT      O27125   6.677   3.986   1.571 -0.1598  0.6013 -0.1852
 6605WAT     H127126   6.593   4.004   1.580 -0.0487  0.6009  0.9896
 6605WAT     H227127   6.717   4.051   1.613  0.4931  1.2839 -1.7776
 6605WAT    EPW27128   6.671   3.998   1.579 -0.4477 -0.2643  0.0065
 6606WAT      O27129   4.291   4.001   7.200  0.6557  0.2812  0.2533
 6606WAT     H127130   4.275   4.040   7.276 -0.8870  0.3062 -0.0522
 6606WAT     H227131   4.377   3.985   7.203  1.3133  3.2816  0.5717
 6606WAT    EPW27132   4.301   4.004   7.212 -0.0381 -0.2616 -0.4365
 6607WAT      O27133   3.360   3.736   0.092  0.8216 -0.1765 -0.4451
 6607WAT     H127134   3.424   3.743   0.151  1.8055 -1.5392 -1.2975
 6607WAT     H227135   3.398   3.762   0.018 -0.4976  1.8578 -0.5072
 6607WAT    EPW27136   3.376   3.741   0.090 -0.0992 -0.0629 -0.2108
 6608WAT      O27137   2.536   1.985   1.238  0.0765  0.0431 -0.1670
 6608WAT     H127138   2.533   2.064   1.201  0.4995 -0.3357 -1.0453
 6608WAT     H227139   2.554   1.932   1.171 -1.1073 -0.9190  0.2475
 6608WAT    EPW27140   2.539   1.989   1.222  0.2914  1.0122 -0.2314
 6609WAT      O27141   5.842   6.004   7.604  0.2833 -0.5698 -0.2689
 6609WAT     H127142   5.819   6.078   7.646  1.1540 -0.1935 -0.4312
 6609WAT     H227143   5.874   6.033   7.528  1.0511 -1.0821 -0.1489
 6609WAT    EPW27144   5.843   6.019   7.599 -0.0585  0.0238 -0.0160
 6610WAT      O27145   4.656   2.756   2.142  0.2983  0.0276 -0.0045
 6610WAT     H127146   4.624   2.800   2.211  1.6570 -0.1032  0.7338
 6610WAT     H227147   4.605   2.783   2.076 -2.1624 -1.1122  1.2892
 6610WAT    EPW27148   4.643   2.766   2.142 -0.6512  0.4099 -0.2255
 6611WAT      O27149   5.569   4.125   6.377  0.3317 -0.4454 -0.2206
 6611WAT     H127150   5.630   4.188   6.382 -0.0918 -0.0752  0.3999
 6611WAT     H227151   5.615   4.054   6.358  0.8418  0.0210 -0.7823
 6611WAT    EPW27152   5.585   4.124   6.375  0.1525  0.5038 -0.1226
 6612WAT      O27153   6.386   7.559   5.412 -0.3479 -0.4809  0.0208
 6612WAT     H127154   6.444   7.553   5.348  2.5166  0.0465  2.3269
 6612WAT     H227155   6.435   7.580   5.482 -3.3838  0.3154  2.1158
 6612WAT    EPW27156   6.402   7.561   5.413 -0.2428 -0.1722  0.2672
 6613WAT      O27157   3.113   4.728   1.061  0.0430 -0.3794  0.0557
 6613WAT     H127158   3.190   4.769   1.068 -0.1627 -0.0866  0.6582
 6613WAT     H227159   3.082   4.756   0.985 -0.5248  1.3578  0.8741
 6613WAT    EPW27160   3.120   4.738   1.051 -0.0204  0.3995  0.5013
 6614WAT      O27161   4.055   3.537   1.274 -0.7681 -0.2429  0.1727
 6614WAT     H127162   4.084   3.497   1.203 -1.1020 -0.6453  0.2594
 6614WAT     H227163   4.121   3.529   1.331 -0.3402  0.4398 -0.2201
 6614WAT    EPW27164   4.069   3.530   1.272 -0.3951  0.4840  0.0238
 6615WAT      O27165   2.596   5.961   7.072  0.0358 -0.2342 -0.5224
 6615WAT     H127166   2.654   5.998   7.017  1.2541  0.3511  1.0667
 6615WAT     H227167   2.522   6.003   7.055  1.2867  2.9307  0.9934
 6615WAT    EPW27168   2.594   5.973   7.061 -0.3599 -0.4801 -0.3980
 6616WAT      O27169   6.617   2.337   5.690 -0.1192  0.4518 -0.1584
 6616WAT     H127170   6.598   2.391   5.625 -0.7788  0.1153 -0.2605
 6616WAT     H227171   6.547   2.343   5.742 -0.6689 -1.0178 -0.6619
 6616WAT    EPW27172   6.604   2.346   5.688 -0.2719  0.2553  0.3624
 6617WAT      O27173   7.408   7.049   7.216  0.1662 -0.2838 -0.0756
 6617WAT     H127174   7.468   7.034   7.155 -0.0063 -0.3257 -0.2362
 6617WAT     H227175   7.454   7.081   7.283  0.4338 -0.8069 -0.0096
 6617WAT    EPW27176   7.424   7.052   7.217  0.2456 -0.2393  0.2005
 6618WAT      O27177   5.400   6.774   0.339  0.0751 -0.1715 -0.2540
 6618WAT     H127178   5.370   6.856   0.337  0.9444  0.2424  1.6831
 6618WAT     H227179   5.328   6.726   0.344 -0.4329  0.7036  2.3605
 6618WAT    EPW27180   5.385   6.779   0.339 -0.0539  0.0683  0.0976
 6619WAT      O27181   6.411   2.935   2.555 -0.0643  0.3793 -0.0084
 6619WAT     H127182   6.344   2.988   2.538  0.4323  0.4889 -1.7711
 6619WAT     H227183   6.481   2.979   2.527  0.3197 -1.2852 -1.9436
 6619WAT    EPW27184   6.411   2.949   2.548 -0.7603  0.6275  0.5194
 6620WAT      O27185   5.108   6.532   2.361  0.3967 -0.0152  0.0519
 6620WAT     H127186   5.171   6.592   2.367  2.8515 -2.4813  0.9586
 6620WAT     H227187   5.114   6.489   2.437 -0.4068 -2.1694 -1.0394
 6620WAT    EPW27188   5.118   6.535   2.373 -0.5220 -0.2153  0.5076
 6621WAT      O27189   5.844   6.956   2.928  0.3996  0.6142  0.0339
 6621WAT     H127190   5.840   6.869   2.934 -0.3948  0.5460 -0.9986
 6621WAT     H227191   5.841   6.971   2.842  3.5649  1.5903 -0.0395
 6621WAT    EPW27192   5.843   6.946   2.916  0.2800  0.4579  0.1777
 6622WAT      O27193   0.932   4.030   6.939 -0.3616  0.5436  0.3439
 6622WAT     H127194   0.929   3.987   6.863 -0.2803 -0.6137  0.9914
 6622WAT     H227195   0.890   4.105   6.921  0.9332  0.9502 -1.2489
 6622WAT    EPW27196   0.926   4.035   6.925 -0.2774  0.7858  0.1166
 6623WAT      O27197   7.035   3.321   6.813  0.2715 -0.2019 -0.1190
 6623WAT     H127198   7.094   3.368   6.770  0.7527 -0.7864 -0.1004
 6623WAT     H227199   7.044   3.241   6.780  0.6418 -0.6604  1.0560
 6623WAT    EPW27200   7.045   3.316   6.802  0.3072 -0.4445 -0.1774
 6624WAT      O27201   4.827   2.443   4.174  0.0940  0.3256  0.5534
 6624WAT     H127202   4.864   2.440   4.095 -0.5087 -0.9507  0.2894
 6624WAT     H227203   4.854   2.519   4.207  1.2465  0.3798 -0.4493
 6624WAT    EPW27204   4.837   2.453   4.167  0.7640 -0.3567  0.3367
 6625WAT      O27205   2.501   6.065   2.986  0.4679 -0.1444 -0.1555
 6625WAT     H127206   2.418   6.072   3.013  0.0533 -2.8088 -0.4823
 6625WAT     H227207   2.545   6.045   3.059  0.6387  0.0697 -0.1965
 6625WAT    EPW27208   2.495   6.063   3.001  0.0846  0.6109 -0.3639
 6626WAT      O27209   4.719   5.859   3.328 -0.2435 -0.3530  0.9582
 6626WAT     H127210   4.653   5.916   3.336 -0.8008 -1.1799  2.7653
 6626WAT     H227211   4.697   5.814   3.256 -0.6049  0.6656  0.4055
 6626WAT    EPW27212   4.706   5.861   3.318 -0.0899  0.1584  0.1393
 6627WAT      O27213   6.087   4.314   1.816 -0.7414  0.2786 -0.6629
 6627WAT     H127214   6.097   4.252   1.877  0.9962  1.8631  0.7801
 6627WAT     H227215   6.046   4.378   1.859  2.0829  2.1519 -0.4649
 6627WAT    EPW27216   6.083   4.315   1.832  0.9088 -0.2411 -0.1164
 6628WAT      O27217   1.130   4.587   0.209 -0.1641  0.6882 -0.3183
 6628WAT     H127218   1.104   4.633   0.278  0.8515  1.4542 -0.4174
 6628WAT     H227219   1.131   4.505   0.239  0.8609  1.0687  0.8125
 6628WAT    EPW27220   1.126   4.581   0.224  0.2487  0.2492 -0.7710
 6629WAT      O27221   3.604   0.615   0.165  0.2037 -0.2412  0.0672
 6629WAT     H127222   3.526   0.619   0.203 -0.0941  2.4530 -0.6315
 6629WAT     H227223   3.585   0.596   0.082  0.2635  0.5975 -0.1426
 6629WAT    EPW27224   3.590   0.612   0.158  0.5011 -0.0669  0.0043
 6630WAT      O27225   6.112   7.592   5.109 -0.2337  0.3716  0.4090
 6630WAT     H127226   6.137   7.609   5.191  0.6888  0.0242  0.2148
 6630WAT     H227227   6.174   7.538   5.080 -2.0063 -1.7696  0.3837
 6630WAT    EPW27228   6.125   7.586   5.117  0.6664 -0.0586 -0.3900
 6631WAT      O27229   3.864   1.162   7.271 -0.0422  0.4114  0.3906
 6631WAT     H127230   3.793   1.116   7.292 -0.7822  1.1485 -0.4800
 6631WAT     H227231   3.861   1.230   7.326  0.5356 -0.0381  1.0111
 6631WAT    EPW27232   3.853   1.165   7.282  0.2270 -0.1480 -0.5510
 6632WAT      O27233   6.533   2.185   2.202  0.2711  0.3217  0.1882
 6632WAT     H127234   6.580   2.139   2.260 -2.0357 -1.9577  0.4380
 6632WAT     H227235   6.489   2.241   2.252 -0.0752 -0.1485  0.4244
 6632WAT    EPW27236   6.533   2.186   2.218 -0.1569 -0.1607 -0.3537
 6633WAT      O27237   7.357   2.144   0.238  0.1700  0.4639 -0.2446
 6633WAT     H127238   7.304   2.096   0.188 -0.2017  0.7583 -0.1351
 6633WAT     H227239   7.345   2.112   0.318  0.5533  0.1834 -0.2945
 6633WAT    EPW27240   7.347   2.132   0.242 -0.8243  0.2501 -0.4575
 6634WAT      O27241   5.753   5.807   6.208  0.4594  0.3903  0.2259
 6634WAT     H127242   5.703   5.861   6.255 -0.0029 -0.4514  0.7265
 6634WAT     H227243   5.793   5.860   6.151  0.0670  1.2609  0.7453
 6634WAT    EPW27244   5.752   5.823   6.206 -0.2513  0.1568  0.2772
 6635WAT      O27245   0.354   1.638   4.165 -0.1474 -0.6487 -0.1826
 6635WAT     H127246   0.404   1.701   4.132  1.8274 -1.7505  0.5454
 6635WAT     H227247   0.339   1.586   4.097  1.3172 -1.2805 -0.0664
 6635WAT    EPW27248   0.359   1.639   4.150 -0.2411  0.2176  0.3004
 6636WAT      O27249   4.836   5.217   4.928 -0.0671 -0.2489  0.2236
 6636WAT     H127250   4.765   5.170   4.905 -0.4909  0.2739  0.4417
 6636WAT     H227251   4.863   5.176   5.001 -0.7923  0.1825  0.7589
 6636WAT    EPW27252   4.829   5.204   4.936  0.4870 -0.1188  0.2029
 6637WAT      O27253   0.267   5.361   7.328 -0.0041 -0.0774  0.2869
 6637WAT     H127254   0.187   5.362   7.363 -0.0392  1.3057  0.2493
 6637WAT     H227255   0.273   5.282   7.292 -0.9841 -0.5554  1.1074
 6637WAT    EPW27256   0.256   5.350   7.328  0.3806 -0.6639 -0.0597
 6638WAT      O27257   4.717   4.427   2.218  0.3724 -0.2774  0.3924
 6638WAT     H127258   4.692   4.364   2.274  0.2421  0.9290  1.7395
 6638WAT     H227259   4.708   4.389   2.140 -3.1013 -0.8092  0.9145
 6638WAT    EPW27260   4.712   4.412   2.215  0.0172 -0.4815 -0.2505
 6639WAT      O27261   6.764   4.352   1.464  0.0529  0.3466 -0.1258
 6639WAT     H127262   6.771   4.321   1.545 -0.4893  2.2039  0.6857
 6639WAT     H227263   6.827   4.411   1.459  0.9913 -0.7008 -1.5904
 6639WAT    EPW27264   6.774   4.356   1.475 -0.4324  0.4352  0.2250
 6640WAT      O27265   0.105   3.431   4.680  0.1021 -0.0713  0.5816
 6640WAT     H127266   0.039   3.376   4.697 -0.7939 -0.4941 -3.3518
 6640WAT     H227267   0.176   3.385   4.701 -0.7333 -1.4391  0.5198
 6640WAT    EPW27268   0.105   3.416   4.686  0.0180  0.4719  0.4257
 6641WAT      O27269   1.351   5.765   1.473  0.1526  0.2984 -0.2873
 6641WAT     H127270   1.298   5.762   1.405  0.3718 -2.2841 -0.4456
 6641WAT     H227271   1.301   5.741   1.540  0.4831  0.5781  0.0695
 6641WAT    EPW27272   1.336   5.761   1.473  0.0511 -0.5984  0.2655
 6642WAT      O27273   0.382   3.895   4.772 -0.3350  0.1952  0.1414
 6642WAT     H127274   0.415   3.905   4.852 -2.5438 -0.1648  1.1925
 6642WAT     H227275   0.312   3.844   4.785 -1.3047  0.8851 -1.8908
 6642WAT    EPW27276   0.377   3.889   4.786  0.0619  0.2201  0.1738
 6643WAT      O27277   4.095   1.013   5.809  0.0300 -0.1004 -0.3757
 6643WAT     H127278   4.088   0.941   5.760  0.4273 -1.5325  1.5348
 6643WAT     H227279   4.018   1.053   5.799 -0.7951 -1.6081 -0.2634
 6643WAT    EPW27280   4.083   1.008   5.800  0.3591 -0.6571  0.7148
 6644WAT      O27281   7.084   6.149   4.756 -0.1282 -0.1514 -0.5297
 6644WAT     H127282   7.148   6.122   4.704  1.2896  1.8316  0.0771
 6644WAT     H227283   7.074   6.083   4.812  2.8669  0.2321  0.6281
 6644WAT    EPW27284   7.092   6.135   4.757  1.0861 -0.0233 -0.2716
 6645WAT      O27285   6.100   6.649   2.037 -0.2904  0.0406 -0.0782
 6645WAT     H127286   6.131   6.694   2.105  0.5872  1.0747 -1.1153
 6645WAT     H227287   6.164   6.655   1.978 -1.3237 -0.2038 -1.2617
 6645WAT    EPW27288   6.114   6.656   2.038 -0.2582  0.0455 -0.1651
 6646WAT      O27289   0.011   0.597   2.123  0.1386 -0.0483 -0.1722
 6646WAT     H127290  -0.008   0.675   2.089  1.8649 -0.3852 -2.0725
 6646WAT     H227291   0.007   0.543   2.055  0.5139 -1.3611  0.8051
 6646WAT    EPW27292   0.008   0.601   2.108  0.2612 -0.3820 -0.2530
 6647WAT      O27293   2.527   4.284   3.665  0.0964  0.1073  0.2920
 6647WAT     H127294   2.496   4.332   3.599 -0.0158 -0.6520 -0.2063
 6647WAT     H227295   2.493   4.324   3.736  0.2506  0.9420 -0.0896
 6647WAT    EPW27296   2.517   4.297   3.666  0.1592 -0.0192 -0.1443
 6648WAT      O27297   6.764   1.563   5.885 -0.5082  0.0208  0.4102
 6648WAT     H127298   6.707   1.576   5.950 -0.6473  0.0851  0.2770
 6648WAT     H227299   6.839   1.549   5.926 -0.7150 -0.5719  0.6094
 6648WAT    EPW27300   6.766   1.563   5.900  0.0306 -0.3638 -0.0460
 6649WAT      O27301   5.061   3.865   1.411 -0.0557 -0.2478  0.3560
 6649WAT     H127302   4.978   3.870   1.385  0.6903  0.0269 -2.2922
 6649WAT     H227303   5.076   3.943   1.447 -0.6845  0.0876 -0.0934
 6649WAT    EPW27304   5.051   3.877   1.412 -0.0723 -0.0770  0.0309
 6650WAT      O27305   2.124   1.073   0.263 -0.1972 -0.2235  0.0206
 6650WAT     H127306   2.082   1.017   0.315 -0.3504  0.8082  1.0671
 6650WAT     H227307   2.106   1.046   0.183 -0.1036 -1.7660  0.5001
 6650WAT    EPW27308   2.115   1.061   0.259  0.3598  0.1921  0.1966
 6651WAT      O27309   3.391   2.895   7.413  0.0762 -0.4461 -0.4836
 6651WAT     H127310   3.401   2.882   7.327  0.7206 -3.3913 -0.0604
 6651WAT     H227311   3.458   2.852   7.448 -0.8923 -0.3986  1.5565
 6651WAT    EPW27312   3.402   2.887   7.405  0.4864  0.2754 -0.1130
 6652WAT      O27313   3.773   6.067   2.999  0.0659  0.4649 -0.7220
 6652WAT     H127314   3.693   6.053   3.032  0.1883 -3.2231 -1.5801
 6652WAT     H227315   3.772   6.024   2.923  3.0049 -0.2185 -0.4918
 6652WAT    EPW27316   3.761   6.059   2.993  0.1199 -0.0469  0.0774
 6653WAT      O27317   6.943   4.744   2.759 -0.0843 -0.5132  0.4723
 6653WAT     H127318   6.870   4.748   2.712  0.5992 -0.2245 -0.5896
 6653WAT     H227319   6.930   4.802   2.823 -0.6444 -0.2272  0.1020
 6653WAT    EPW27320   6.930   4.753   2.761  0.1962 -0.2141 -0.1061
 6654WAT      O27321   6.231   3.152   2.421  0.1352  0.1268  0.4133
 6654WAT     H127322   6.267   3.209   2.477  0.2700  0.0562  0.3997
 6654WAT     H227323   6.245   3.189   2.343 -0.4576  0.4477  0.4582
 6654WAT    EPW27324   6.239   3.166   2.418  0.4795  0.5402 -0.7029
 6655WAT      O27325   2.978   7.417   2.656 -0.5384 -0.3614  0.0435
 6655WAT     H127326   3.035   7.450   2.598  1.2693 -0.4842  1.6786
 6655WAT     H227327   2.920   7.376   2.605 -0.4214  1.5756 -1.8154
 6655WAT    EPW27328   2.978   7.416   2.640 -0.0728 -0.0875 -0.0840
 6656WAT      O27329   7.413   3.721   7.447 -0.3854 -0.0070  0.1088
 6656WAT     H127330   7.385   3.793   7.407 -0.2563 -0.2108 -0.3491
 6656WAT     H227331   7.367   3.657   7.409  0.9124 -0.3856 -0.8758
 6656WAT    EPW27332   7.402   3.722   7.436  0.3506 -0.2936  0.3543
 6657WAT      O27333   3.037   1.406   0.096 -0.3932  0.0384  0.3266
 6657WAT     H127334   3.031   1.458   0.165  1.0495  2.0505 -0.9275
 6657WAT     H227335   3.093   1.344   0.121  0.4435  0.9871  0.8425
 6657WAT    EPW27336   3.044   1.405   0.110 -0.5678 -0.2782  0.0515
 6658WAT      O27337   3.145   0.758   7.166 -0.0519 -0.2520 -0.5856
 6658WAT     H127338   3.194   0.722   7.104  2.3259 -1.0802  1.6036
 6658WAT     H227339   3.164   0.843   7.161  1.9157 -0.5783  0.3631
 6658WAT    EPW27340   3.155   0.765   7.156  0.4482 -0.1202 -0.3082
 6659WAT      O27341   1.877   3.805   6.538 -0.1666 -0.5980  0.0199
 6659WAT     H127342   1.914   3.742   6.586 -0.4660 -0.1626  0.8590
 6659WAT     H227343   1.918   3.878   6.565  0.5641 -0.4871 -1.3383
 6659WAT    EPW27344   1.888   3.807   6.549  0.3747  0.4943  0.3110
 6660WAT      O27345   7.003   7.073   2.297 -0.5862  0.3356 -0.5303
 6660WAT     H127346   7.067   7.037   2.250  0.4547 -1.3076  1.9519
 6660WAT     H227347   7.029   7.155   2.309 -0.3264  0.4567 -1.8097
 6660WAT    EPW27348   7.016   7.080   2.292  0.1382 -0.3145 -0.0078
 6661WAT      O27349   0.415   3.016   0.307  0.0363  0.7270 -0.3556
 6661WAT     H127350   0.372   2.987   0.377  0.9235  0.9938  0.3262
 6661WAT     H227351   0.357   3.065   0.264 -1.6667 -2.2864 -1.7814
 6661WAT    EPW27352   0.400   3.019   0.311  0.0689 -0.0021 -0.3264
 6662WAT      O27353   2.269   5.450   0.709 -0.4236 -0.3950  0.5643
 6662WAT     H127354   2.341   5.478   0.749  0.3053  0.8552 -1.4658
 6662WAT     H227355   2.286   5.367   0.690 -0.3455 -0.6793  1.7764
 6662WAT    EPW27356   2.282   5.442   0.713 -0.1353 -0.2150  0.2441
 6663WAT      O27357   0.506   5.896   4.047 -0.4548 -0.1261  1.1313
 6663WAT     H127358   0.543   5.867   4.120  0.1340 -0.5268  0.6837
 6663WAT     H227359   0.548   5.853   3.984 -0.6938  0.4892  0.5359
 6663WAT    EPW27360   0.517   5.886   4.048 -0.8992 -0.0281 -0.6076
 6664WAT      O27361   2.803   6.710   5.490  0.5340 -0.1377 -0.2985
 6664WAT     H127362   2.736   6.744   5.446  1.2781  1.8747  0.0451
 6664WAT     H227363   2.768   6.641   5.530 -1.1887  0.5153 -0.6008
 6664WAT    EPW27364   2.788   6.704   5.490 -0.7311  0.0451 -0.1412
 6665WAT      O27365   6.563   2.885   6.687 -0.1573  0.2288  0.2211
 6665WAT     H127366   6.592   2.959   6.722 -0.7189  1.2731 -1.3922
 6665WAT     H227367   6.619   2.870   6.621 -0.6406 -0.1970 -0.1049
 6665WAT    EPW27368   6.576   2.894   6.682  0.6674 -0.1941  0.1388
 6666WAT      O27369   5.998   5.451   2.932 -0.2081 -0.2855 -0.6483
 6666WAT     H127370   5.983   5.412   2.855 -0.6384 -2.4262  0.4454
 6666WAT     H227371   5.951   5.404   2.988 -0.3724  1.5825  0.8765
 6666WAT    EPW27372   5.989   5.438   2.929  0.2438 -0.1159 -0.7584
 6667WAT      O27373   3.810   1.429   4.908  0.1577  0.4022 -0.1385
 6667WAT     H127374   3.730   1.460   4.920 -0.1791  0.0497 -1.3215
 6667WAT     H227375   3.815   1.363   4.965 -0.2792  0.6105  0.1477
 6667WAT    EPW27376   3.799   1.424   4.918  0.2797 -0.6786  0.4907
 6668WAT      O27377   1.987   1.270   0.621  0.0603  0.3712 -0.1022
 6668WAT     H127378   2.059   1.231   0.648 -0.8599 -1.0786  0.3679
 6668WAT     H227379   1.978   1.338   0.675  1.6817  1.2923 -0.9297
 6668WAT    EPW27380   1.996   1.274   0.633 -0.0564 -0.3663  0.4843
 6669WAT      O27381   3.355   5.234   1.294  0.5140  0.1787  0.4315
 6669WAT     H127382   3.315   5.221   1.217  0.7107  0.1168  0.3390
 6669WAT     H227383   3.289   5.240   1.351  0.2718  2.0463 -0.0013
 6669WAT    EPW27384   3.339   5.233   1.291 -0.4604  0.1260  0.3406
 6670WAT      O27385   1.931   1.476   7.250 -0.5146 -0.0018 -0.0929
 6670WAT     H127386   1.883   1.406   7.230 -1.3453  0.7302 -0.7205
 6670WAT     H227387   2.013   1.449   7.235 -0.8376 -0.7405 -0.6050
 6670WAT    EPW27388   1.936   1.461   7.245  0.3715 -0.6439  0.9359
 6671WAT      O27389   0.600   4.437   1.686  0.7058 -0.4111 -0.5053
 6671WAT     H127390   0.667   4.485   1.716  1.8908 -2.8869  1.1675
 6671WAT     H227391   0.530   4.475   1.723  1.5385  0.2639  0.4547
 6671WAT    EPW27392   0.600   4.450   1.696 -0.1255  0.1007  0.3147
 6672WAT      O27393   5.216   2.655   7.463  0.0015 -0.0150  0.6321
 6672WAT     H127394   5.235   2.732   7.500  0.3015  0.1135  0.2184
 6672WAT     H227395   5.288   2.608   7.479 -0.5524 -0.5258  1.7113
 6672WAT    EPW27396   5.230   2.659   7.471 -0.5911  0.1316  0.4537
 6673WAT      O27397   6.745   6.003   2.569  0.3744  0.3647  0.0719
 6673WAT     H127398   6.806   6.066   2.570 -0.5722  1.3082  0.9757
 6673WAT     H227399   6.789   5.932   2.545  1.7002  1.1447  0.0963
 6673WAT    EPW27400   6.761   6.002   2.565 -0.3458  0.5290  0.4623
 6674WAT      O27401   3.994   1.150   4.384 -0.0094 -0.4133 -0.0831
 6674WAT     H127402   4.018   1.197   4.314 -0.3506 -0.0523  0.0433
 6674WAT     H227403   4.046   1.180   4.447 -1.0182  0.6033  0.2708
 6674WAT    EPW27404   4.005   1.161   4.383  0.1919 -0.2813  0.5843
 6675WAT      O27405   4.141   6.773   4.460 -0.3959 -0.1112  0.0741
 6675WAT     H127406   4.175   6.822   4.523 -0.2834 -0.5070  0.3215
 6675WAT     H227407   4.112   6.702   4.502 -0.4664 -0.3045 -0.2960
 6675WAT    EPW27408   4.141   6.770   4.475 -0.4427  0.5885  0.4248
 6676WAT      O27409   3.485   6.443   0.940 -0.0051  0.6902 -0.0011
 6676WAT     H127410   3.570   6.452   0.959  0.4760 -1.4558 -0.8326
 6676WAT     H227411   3.454   6.398   1.009 -0.2276  0.5568 -0.1883
 6676WAT    EPW27412   3.493   6.438   0.953 -0.4343  0.1220 -0.7371
 6677WAT      O27413   2.143   6.113   0.574  0.2146 -0.6514 -0.0762
 6677WAT     H127414   2.123   6.030   0.593 -1.4357 -0.2038  0.3372
 6677WAT     H227415   2.074   6.140   0.529 -0.5302  1.2234  1.9971
 6677WAT    EPW27416   2.130   6.105   0.570  0.0310  0.2307  0.0185
 6678WAT      O27417   2.159   0.580   6.673 -0.1349 -0.1492 -0.1521
 6678WAT     H127418   2.195   0.581   6.593  0.1253 -0.2999 -0.0365
 6678WAT     H227419   2.110   0.652   6.673 -0.6490 -0.4878 -0.6822
 6678WAT    EPW27420   2.157   0.591   6.661  0.5870  0.1671  0.1695
 6679WAT      O27421   3.783   2.846   5.491  0.0805 -0.0580 -0.1738
 6679WAT     H127422   3.707   2.875   5.460  1.0554  2.7873 -0.1706
 6679WAT     H227423   3.809   2.910   5.545  0.2524 -3.0391  3.7641
 6679WAT    EPW27424   3.775   2.860   5.495 -0.0386  0.0745 -0.0014
 6680WAT      O27425   3.926   0.487   5.355  0.9277  0.0901  0.3168
 6680WAT     H127426   3.986   0.495   5.417  2.2661  0.0251 -0.9211
 6680WAT     H227427   3.969   0.505   5.281 -0.2517 -1.2009 -0.7576
 6680WAT    EPW27428   3.941   0.491   5.353  0.4612  0.0527  0.3323
 6681WAT      O27429   3.327   3.475   1.176 -0.1286  0.0403 -0.2386
 6681WAT     H127430   3.331   3.491   1.262  1.2397 -0.0323 -0.2571
 6681WAT     H227431   3.370   3.542   1.141  0.0806 -0.3828 -0.7976
 6681WAT    EPW27432   3.334   3.487   1.184  0.1152 -0.1768  0.2805
 6682WAT      O27433   0.109   5.612   6.305 -0.0895 -0.1899 -0.4026
 6682WAT     H127434   0.172   5.552   6.300 -0.5402 -0.7366  0.3012
 6682WAT     H227435   0.040   5.572   6.270 -0.8182 -0.6943  1.5093
 6682WAT    EPW27436   0.108   5.598   6.299  0.2496 -0.0021  0.1951
 6683WAT      O27437   1.259   5.516   5.198  0.2524 -0.2091  0.1427
 6683WAT     H127438   1.225   5.490   5.274  0.9639  0.6802  0.7857
 6683WAT     H227439   1.344   5.502   5.209  0.6586  2.0728  0.4389
 6683WAT    EPW27440   1.266   5.510   5.211 -0.7753  0.1244 -0.0573
 6684WAT      O27441   2.290   0.844   6.310 -0.0135 -0.0071 -0.8800
 6684WAT     H127442   2.306   0.924   6.340 -1.7136  0.1406 -0.2352
 6684WAT     H227443   2.277   0.856   6.225 -0.9078  0.5456 -0.6851
 6684WAT    EPW27444   2.290   0.858   6.302 -0.6649  0.1058 -0.1203
 6685WAT      O27445   7.467   6.471   3.924 -0.1586  0.6050 -0.0119
 6685WAT     H127446   7.407   6.516   3.879  1.2174  1.3946 -1.1517
 6685WAT     H227447   7.420   6.423   3.980 -1.7283  3.3698  1.2130
 6685WAT    EPW27448   7.451   6.470   3.926 -0.0067  0.0275 -0.0102
 6686WAT      O27449   2.246   6.863   1.105  0.4089 -0.2685  0.0181
 6686WAT     H127450   2.332   6.872   1.117  0.0787  2.6453  0.9572
 6686WAT     H227451   2.219   6.829   1.181  0.4214  1.9595  1.1100
 6686WAT    EPW27452   2.255   6.859   1.118 -0.5286  0.0527  0.5731
 6687WAT      O27453   0.526   5.791   3.468 -0.2076 -0.7770  0.0497
 6687WAT     H127454   0.485   5.808   3.393 -0.8612 -0.4613  0.4629
 6687WAT     H227455   0.610   5.783   3.445 -0.2486  0.3530 -0.5650
 6687WAT    EPW27456   0.532   5.792   3.454 -0.5487 -0.3244 -0.2696
 6688WAT      O27457   0.202   7.514   5.011  0.0070  0.2100  0.7373
 6688WAT     H127458   0.240   7.435   5.013 -1.0169 -0.3501 -0.2096
 6688WAT     H227459   0.223   7.549   5.087 -0.1431 -1.3049  1.5254
 6688WAT    EPW27460   0.211   7.507   5.023 -0.3013  0.4225  0.2077
 6689WAT      O27461   2.531   2.490   6.884  0.4565 -1.1444  0.4701
 6689WAT     H127462   2.495   2.528   6.954  0.6584 -1.5567  0.8009
 6689WAT     H227463   2.462   2.476   6.832  0.5781  1.3764 -0.5192
 6689WAT    EPW27464   2.515   2.494   6.887  0.1497 -0.0325  0.3213
 6690WAT      O27465   5.014   1.359   1.145 -0.3010 -0.2559  0.4946
 6690WAT     H127466   5.039   1.294   1.198 -0.9255  0.0829  1.2218
 6690WAT     H227467   4.932   1.340   1.126 -0.3256  0.0481  0.2853
 6690WAT    EPW27468   5.006   1.347   1.150  0.4898 -0.8378 -0.3997
 6691WAT      O27469   4.672   2.248   0.456 -0.0803  1.2495  0.0600
 6691WAT     H127470   4.658   2.295   0.385 -0.1771  0.8276 -0.2037
 6691WAT     H227471   4.606   2.191   0.457  0.8528  0.1156 -0.4785
 6691WAT    EPW27472   4.660   2.246   0.446  0.2087  0.4279 -0.1560
 6692WAT      O27473   4.039   7.050   2.201 -0.7974 -0.1285 -0.1756
 6692WAT     H127474   4.020   6.968   2.225  0.2388 -0.1442  0.6523
 6692WAT     H227475   4.075   7.040   2.123  0.6547 -0.6400  0.5264
 6692WAT    EPW27476   4.041   7.036   2.193 -0.0634 -0.0248  0.2632
 6693WAT      O27477   6.519   1.927   6.719  0.2068  0.0001 -0.3956
 6693WAT     H127478   6.595   1.927   6.678  0.1139  0.2239 -0.5727
 6693WAT     H227479   6.496   2.012   6.720 -0.5820 -0.1804 -1.3665
 6693WAT    EPW27480   6.527   1.940   6.713 -0.7095 -0.3781  0.1105
 6694WAT      O27481   2.293   2.200   6.646 -0.2263 -0.4876  0.1742
 6694WAT     H127482   2.208   2.199   6.667 -0.2108  0.3799  0.3119
 6694WAT     H227483   2.311   2.285   6.637  0.6244 -0.6641  0.1296
 6694WAT    EPW27484   2.283   2.213   6.648  0.1433  0.7266 -0.0994
 6695WAT      O27485   0.050   2.034   2.023  0.5886 -0.6693 -0.5229
 6695WAT     H127486  -0.022   2.039   1.972  1.1266  1.2203 -1.2131
 6695WAT     H227487   0.105   2.089   1.984  1.5173 -0.1843  1.3715
 6695WAT    EPW27488   0.047   2.043   2.010 -0.2851 -0.4290  0.4411
 6696WAT      O27489   4.067   0.390   4.825  0.0293  0.4038 -0.1247
 6696WAT     H127490   4.109   0.422   4.756 -0.6214  0.8670 -0.3130
 6696WAT     H227491   3.995   0.354   4.791  0.3648 -0.5991  0.1644
 6696WAT    EPW27492   4.062   0.389   4.810  0.2420 -0.0573  0.4766
 6697WAT      O27493   3.107   0.597   4.961 -0.0384 -0.1450  0.1337
 6697WAT     H127494   3.125   0.650   5.028 -0.4354  0.3238 -0.1213
 6697WAT     H227495   3.094   0.653   4.895  0.1821 -0.5931 -0.2946
 6697WAT    EPW27496   3.108   0.613   4.961 -0.3782  0.3551 -0.0595
 6698WAT      O27497   1.782   1.476   1.661  0.1403  0.0504  0.1504
 6698WAT     H127498   1.731   1.443   1.598 -0.2124  1.2261 -0.2025
 6698WAT     H227499   1.861   1.476   1.625  0.3204 -1.2832  0.5055
 6698WAT    EPW27500   1.786   1.471   1.646 -0.5689 -0.0806  0.1892
 6699WAT      O27501   6.905   1.719   2.665  0.0010  0.3430 -0.4323
 6699WAT     H127502   6.942   1.681   2.734 -0.8168 -0.0627 -0.2068
 6699WAT     H227503   6.835   1.760   2.699 -0.4261  0.1179 -1.0108
 6699WAT    EPW27504   6.900   1.720   2.680 -0.3985  0.3173 -0.2789
 6700WAT      O27505   2.830   5.377   5.423  0.3679  0.0864 -0.5116
 6700WAT     H127506   2.746   5.363   5.444  1.0332 -1.4637  1.4390
 6700WAT     H227507   2.848   5.313   5.368  0.6451 -0.5361  0.2801
 6700WAT    EPW27508   2.820   5.366   5.418  0.2777 -0.1375 -0.3936
 6701WAT      O27509   1.599   5.627   0.012 -0.8383  0.4114 -0.5942
 6701WAT     H127510   1.653   5.600   0.075  0.8843  0.5612 -1.9288
 6701WAT     H227511   1.538   5.564   0.010  1.3092 -1.8071 -1.4631
 6701WAT    EPW27512   1.598   5.614   0.021 -0.3065 -0.3322 -0.1882
 6702WAT      O27513   0.146   2.109   1.038 -0.2667  0.0157  0.2105
 6702WAT     H127514   0.061   2.105   1.058 -0.3246 -1.5022 -0.1801
 6702WAT     H227515   0.148   2.160   0.968 -1.1942 -1.6697 -1.1534
 6702WAT    EPW27516   0.133   2.116   1.031  0.4641 -0.2644  0.6535
 6703WAT      O27517   6.169   6.972   6.996 -0.2232 -0.3066  0.2446
 6703WAT     H127518   6.211   7.010   7.062 -0.1933 -1.6669  1.0454
 6703WAT     H227519   6.154   7.038   6.941  0.0075  0.8104  1.4647
 6703WAT    EPW27520   6.173   6.987   6.997  0.7325 -0.0486 -0.1427
 6704WAT      O27521   2.732   2.435   4.789 -0.2415 -0.5021 -0.1750
 6704WAT     H127522   2.646   2.436   4.774 -0.0482  0.1644 -1.4080
 6704WAT     H227523   2.766   2.454   4.711  0.9729  0.8851  0.6430
 6704WAT    EPW27524   2.724   2.438   4.775 -0.3111 -0.3737 -0.0411
 6705WAT      O27525   7.444   6.974   0.479 -0.7279 -0.5222  0.5589
 6705WAT     H127526   7.380   7.028   0.503 -0.6795 -0.2070 -0.0190
 6705WAT     H227527   7.460   6.928   0.552 -2.1317 -1.1458  0.5061
 6705WAT    EPW27528   7.437   6.975   0.493 -0.0464 -0.0116  0.0243
 6706WAT      O27529   2.163   6.028   2.772  0.3126  0.4651 -0.5153
 6706WAT     H127530   2.195   5.950   2.792  4.1037  1.8075 -0.5133
 6706WAT     H227531   2.172   6.074   2.846 -0.7709  1.2705 -0.8391
 6706WAT    EPW27532   2.169   6.023   2.786  0.4737  0.0485  0.5587
 6707WAT      O27533   0.681   0.608   0.771 -0.1692 -0.4707  0.2840
 6707WAT     H127534   0.629   0.663   0.727  0.1952 -0.2854  0.0851
 6707WAT     H227535   0.629   0.577   0.833 -0.9237 -1.3538 -0.7569
 6707WAT    EPW27536   0.666   0.611   0.774  0.5542 -0.1732  0.2149
 6708WAT      O27537   2.691   5.479   3.760 -0.1039  0.4346 -0.2141
 6708WAT     H127538   2.744   5.547   3.773 -0.5708  0.6465  0.6790
 6708WAT     H227539   2.693   5.468   3.673  1.8241  0.0637 -0.1525
 6708WAT    EPW27540   2.699   5.487   3.749  0.0224 -0.1727  0.5034
 6709WAT      O27541   0.159   7.394   5.432 -0.2540  0.3195  0.1140
 6709WAT     H127542   0.116   7.332   5.389  0.0741  0.3077 -0.1947
 6709WAT     H227543   0.239   7.393   5.398  0.2989 -0.3330  1.3580
 6709WAT    EPW27544   0.165   7.385   5.421 -0.0939 -0.3629 -0.1625
 6710WAT      O27545   3.321   4.510   0.410  0.5238  0.1604 -0.0439
 6710WAT     H127546   3.395   4.486   0.449  0.5378  0.7837  0.3306
 6710WAT     H227547   3.305   4.590   0.443  1.4537  1.5041 -2.5705
 6710WAT    EPW27548   3.329   4.519   0.421 -0.5145 -0.0682  0.4444
 6711WAT      O27549   7.549   6.284   6.453 -0.1562  0.0941  0.1077
 6711WAT     H127550   7.548   6.331   6.526  0.7984  0.0014  0.1929
 6711WAT     H227551   7.504   6.333   6.396 -1.6150 -0.2024  0.9506
 6711WAT    EPW27552   7.542   6.298   6.455 -0.0641 -0.4107  0.4233
 6712WAT      O27553   1.169   4.531   6.532  0.1086  0.1902 -0.2241
 6712WAT     H127554   1.240   4.566   6.495  0.7852 -1.4757 -0.6087
 6712WAT     H227555   1.199   4.502   6.609  0.0732 -1.2631 -0.7384
 6712WAT    EPW27556   1.184   4.532   6.538 -0.3742  0.0069  0.2887
 6713WAT      O27557   3.118   0.164   2.543  0.3811 -0.4525 -0.5350
 6713WAT     H127558   3.105   0.211   2.471  2.2340  2.1956  0.6864
 6713WAT     H227559   3.040   0.165   2.582 -0.2964 -0.7820 -1.8075
 6713WAT    EPW27560   3.105   0.171   2.538  0.6047 -0.1260 -0.1553
 6714WAT      O27561   0.856   3.531   1.984 -0.0001  0.3762 -0.2545
 6714WAT     H127562   0.882   3.462   1.937 -0.6923 -0.8730  1.1060
 6714WAT     H227563   0.902   3.524   2.058 -1.1506  0.5008  0.5043
 6714WAT    EPW27564   0.866   3.520   1.988  0.0404  0.6259 -1.0067
 6715WAT      O27565   4.896   4.615   0.100 -0.0791 -0.6295 -0.3765
 6715WAT     H127566   4.982   4.628   0.092 -0.1542 -1.0573 -2.8235
 6715WAT     H227567   4.861   4.685   0.062 -0.7203 -1.5644 -1.6084
 6715WAT    EPW27568   4.903   4.627   0.093 -0.7321  0.2231 -0.4724
 6716WAT      O27569   2.513   0.171   5.019  0.6119 -0.1713 -0.5669
 6716WAT     H127570   2.569   0.138   5.077 -1.3090 -0.3073  1.3387
 6716WAT     H227571   2.490   0.248   5.053  0.8357  0.6327 -2.1420
 6716WAT    EPW27572   2.517   0.177   5.032 -0.1804  0.0320  0.6545
 6717WAT      O27573   6.836   7.011   2.681 -0.2220 -0.0087  0.4582
 6717WAT     H127574   6.873   7.062   2.742 -1.5315 -0.2355  1.4719
 6717WAT     H227575   6.783   7.065   2.639  0.1987 -0.0044 -0.0811
 6717WAT    EPW27576   6.834   7.027   2.684  0.2261  0.3318 -0.2756
 6718WAT      O27577   6.824   2.984   2.304  0.1385  0.2388  0.0405
 6718WAT     H127578   6.770   2.920   2.281  1.6318 -1.1987  0.3636
 6718WAT     H227579   6.894   2.942   2.335  1.2889  2.0244  0.0152
 6718WAT    EPW27580   6.826   2.969   2.305 -0.4152  0.5425  0.6646
 6719WAT      O27581   3.062   6.524   3.379 -0.5805  0.1459 -0.3260
 6719WAT     H127582   2.976   6.523   3.394 -0.3770  1.4251  1.1967
 6719WAT     H227583   3.087   6.444   3.401 -1.2726  0.0062 -0.0234
 6719WAT    EPW27584   3.053   6.512   3.384  0.2189 -0.3397  0.0399
 6720WAT      O27585   5.675   4.982   2.435 -0.5703  0.4698 -0.3439
 6720WAT     H127586   5.736   5.021   2.484 -1.3573  1.6450 -0.2451
 6720WAT     H227587   5.677   5.028   2.361  1.1670 -1.7775 -1.8208
 6720WAT    EPW27588   5.685   4.995   2.431  0.2926 -0.4167  0.4805
 6721WAT      O27589   0.792   6.725   5.660  0.5550  0.0480 -0.2640
 6721WAT     H127590   0.804   6.756   5.741  1.2397 -0.5751 -0.1075
 6721WAT     H227591   0.770   6.795   5.613 -0.0104  0.3902  0.4930
 6721WAT    EPW27592   0.790   6.740   5.665  0.5388 -0.1173  0.1218
 6722WAT      O27593   1.448   1.897   0.584  0.1197 -0.2650  0.0350
 6722WAT     H127594   1.387   1.837   0.568 -0.3936  0.4210 -0.6300
 6722WAT     H227595   1.518   1.868   0.541 -0.0001 -0.5949  0.0600
 6722WAT    EPW27596   1.449   1.884   0.576  0.1047  0.6753 -0.2392
 6723WAT      O27597   7.326   5.383   3.240  0.9574  0.8477 -0.0250
 6723WAT     H127598   7.312   5.397   3.325 -2.3422 -0.9664 -0.1214
 6723WAT     H227599   7.356   5.301   3.237 -0.1418  0.4468 -0.6321
 6723WAT    EPW27600   7.328   5.373   3.252  0.0256 -0.5482 -0.2186
 6724WAT      O27601   1.299   4.433   6.031  0.0702  0.4025 -0.6785
 6724WAT     H127602   1.344   4.366   5.999 -1.1778 -1.3412  0.9705
 6724WAT     H227603   1.218   4.401   6.040 -0.2882  1.6766  1.3516
 6724WAT    EPW27604   1.293   4.418   6.028 -0.4464 -0.0955  0.1725
 6725WAT      O27605   4.818   5.513   3.703 -0.3036 -0.2500 -0.0273
 6725WAT     H127606   4.802   5.561   3.632 -1.5891 -1.1702 -0.3948
 6725WAT     H227607   4.794   5.564   3.769 -0.0955  0.2147 -0.3109
 6725WAT    EPW27608   4.812   5.527   3.703  0.1371  0.1002 -0.5504
 6726WAT      O27609   0.863   3.316   1.375 -0.1259  0.2191  0.3960
 6726WAT     H127610   0.851   3.258   1.439  1.1241 -0.3811  0.1215
 6726WAT     H227611   0.782   3.339   1.352 -0.5951  0.5534  2.2709
 6726WAT    EPW27612   0.849   3.311   1.381  0.4988 -0.2285 -0.4444
 6727WAT      O27613   1.598   6.168   2.119 -0.7100  0.2512  0.8037
 6727WAT     H127614   1.583   6.114   2.053 -0.2720  0.0922  0.8300
 6727WAT     H227615   1.572   6.246   2.088 -2.5738 -0.1585  1.2339
 6727WAT    EPW27616   1.592   6.172   2.104 -0.1196  0.5417 -0.2257
 6728WAT      O27617   4.792   4.604   5.172 -0.0412 -0.3559 -0.1492
 6728WAT     H127618   4.809   4.559   5.245  0.8473 -1.3738 -0.9472
 6728WAT     H227619   4.774   4.542   5.114 -0.3173  0.4223 -0.9115
 6728WAT    EPW27620   4.792   4.588   5.174  0.2326  0.3749 -0.3707
 6729WAT      O27621   1.586   3.920   2.236  0.6462 -0.1309  0.2114
 6729WAT     H127622   1.553   3.944   2.314  1.3788  0.8887  0.2375
 6729WAT     H227623   1.515   3.904   2.188  0.0186  2.4123  0.1245
 6729WAT    EPW27624   1.571   3.921   2.241 -0.4851  0.9412 -0.8647
 6730WAT      O27625   5.518   6.673   0.676 -0.4387 -0.3778 -0.0676
 6730WAT     H127626   5.583   6.620   0.700  0.0887 -2.0842 -4.3471
 6730WAT     H227627   5.458   6.617   0.644 -1.6490  1.4100 -1.0762
 6730WAT    EPW27628   5.518   6.657   0.675  0.6542  0.8144 -0.6109
 6731WAT      O27629   6.788   0.140   5.623  0.1896  0.2373  0.3651
 6731WAT     H127630   6.832   0.112   5.554 -0.7313 -0.1104 -0.0942
 6731WAT     H227631   6.761   0.220   5.600  0.6443  0.4882  0.6817
 6731WAT    EPW27632   6.791   0.148   5.610 -0.2858 -0.3702 -0.0449
 6732WAT      O27633   1.921   4.965   1.871  0.3831  0.1039 -0.5540
 6732WAT     H127634   1.874   4.945   1.942  1.8923 -1.1260  0.1495
 6732WAT     H227635   1.944   5.048   1.884  1.4033 -0.3749  0.8698
 6732WAT    EPW27636   1.917   4.975   1.883  0.0260 -0.1790 -0.1389
 6733WAT      O27637   1.959   6.696   2.115 -0.0863  0.0773 -0.0745
 6733WAT     H127638   1.971   6.659   2.037 -1.1503  0.5427 -0.4763
 6733WAT     H227639   1.904   6.641   2.155 -0.6621  0.5458 -0.1990
 6733WAT    EPW27640   1.953   6.682   2.109  0.1124 -0.2720 -0.2947
 6734WAT      O27641   5.732   5.404   3.664  0.8506  0.0256 -0.3130
 6734WAT     H127642   5.774   5.350   3.611  1.5449  1.3927 -1.2223
 6734WAT     H227643   5.783   5.407   3.735  1.0096 -0.2125 -0.4178
 6734WAT    EPW27644   5.745   5.397   3.667 -0.2372 -0.7428  0.2516
 6735WAT      O27645   6.268   3.123   5.444 -0.2499  1.1536  0.5340
 6735WAT     H127646   6.314   3.197   5.446  0.5656  0.6580  2.3153
 6735WAT     H227647   6.195   3.143   5.487  0.0446  0.9186  1.1696
 6735WAT    EPW27648   6.264   3.137   5.451  0.7440  0.1711 -0.1922
 6736WAT      O27649   1.550   0.858   2.129 -0.0208 -0.2439 -0.6169
 6736WAT     H127650   1.497   0.820   2.187  0.2878  2.4283  1.6311
 6736WAT     H227651   1.544   0.943   2.148  2.2044  0.5236 -2.7748
 6736WAT    EPW27652   1.542   0.865   2.141 -0.7612 -0.0041 -0.0187
 6737WAT      O27653   2.063   0.942   5.173 -0.0190 -0.3380 -0.7436
 6737WAT     H127654   2.005   0.928   5.237 -0.0102 -0.2548 -0.7178
 6737WAT     H227655   2.138   0.914   5.207 -0.0430 -0.4377 -0.7740
 6737WAT    EPW27656   2.066   0.936   5.188  0.3712 -0.2096  0.1038
 6738WAT      O27657   6.251   4.644   4.432 -0.4536 -0.7313 -0.2494
 6738WAT     H127658   6.222   4.637   4.514  0.6431 -0.6036  0.1617
 6738WAT     H227659   6.313   4.583   4.427 -1.0238 -1.2676 -1.2363
 6738WAT    EPW27660   6.256   4.634   4.444  0.4958 -0.8079  0.3034
 6739WAT      O27661   5.403   0.860   2.425  0.4101  0.2051 -0.1112
 6739WAT     H127662   5.367   0.882   2.502 -0.2717  0.0631 -0.3784
 6739WAT     H227663   5.441   0.934   2.399  0.7677  0.2192  0.4228
 6739WAT    EPW27664   5.403   0.874   2.433  0.1518 -0.0966  0.3964
 6740WAT      O27665   3.802   6.666   3.696  0.0532 -0.6092  0.6341
 6740WAT     H127666   3.759   6.592   3.681 -0.2534  0.0277 -2.4166
 6740WAT     H227667   3.886   6.641   3.701 -0.0672 -1.1990 -0.2088
 6740WAT    EPW27668   3.808   6.652   3.694  0.8590 -0.2582  0.2996
 6741WAT      O27669   1.677   3.150   4.107  0.4108  0.3214  0.2782
 6741WAT     H127670   1.591   3.157   4.093  0.3803 -0.9351 -0.2097
 6741WAT     H227671   1.709   3.226   4.077 -0.3385  0.1281 -1.0508
 6741WAT    EPW27672   1.669   3.162   4.101 -0.1688 -0.0171 -0.4596
 6742WAT      O27673   6.433   6.312   3.095 -0.1790  0.1576 -0.4079
 6742WAT     H127674   6.413   6.308   3.180  2.7286 -0.3108  0.3352
 6742WAT     H227675   6.414   6.232   3.066  0.0284 -0.0895  0.1155
 6742WAT    EPW27676   6.427   6.299   3.103 -0.0799  0.4240  0.6908
 6743WAT      O27677   1.843   0.141   5.493  0.0228  0.2267  0.0448
 6743WAT     H127678   1.877   0.061   5.497 -0.3035  0.0878  0.0659
 6743WAT     H227679   1.818   0.148   5.409  1.4659  0.8986 -0.3710
 6743WAT    EPW27680   1.845   0.130   5.481  0.3138  0.5213 -0.0097
 6744WAT      O27681   1.370   6.713   5.135 -0.0118  0.3555  0.4750
 6744WAT     H127682   1.366   6.791   5.172 -1.1105  0.7129 -0.3499
 6744WAT     H227683   1.287   6.684   5.138 -0.0958  0.2787 -1.3757
 6744WAT    EPW27684   1.357   6.720   5.140  0.4065  0.5375 -0.1945
 6745WAT      O27685   3.914   0.637   0.076 -0.4620  0.5738 -0.1230
 6745WAT     H127686   3.892   0.671   0.154 -2.6169  0.5728 -0.6588
 6745WAT     H227687   3.858   0.676   0.021  1.6642  1.3257 -1.8731
 6745WAT    EPW27688   3.902   0.648   0.079  0.0358  0.2797 -0.1951
 6746WAT      O27689   3.153   1.045   2.681 -0.2925  0.3003 -0.1147
 6746WAT     H127690   3.072   1.043   2.713 -0.3797 -1.3635 -0.3180
 6746WAT     H227691   3.145   1.003   2.604  0.5591  1.1202 -0.6774
 6746WAT    EPW27692   3.140   1.038   2.674  0.4158  0.3637  0.8595
 6747WAT      O27693   0.864   7.026   2.112 -0.9467 -0.1569 -0.1846
 6747WAT     H127694   0.813   6.996   2.048 -0.2216  1.7131 -1.7531
 6747WAT     H227695   0.928   6.967   2.117 -0.8716 -0.2132 -1.4160
 6747WAT    EPW27696   0.866   7.013   2.103 -0.6970  0.3616  0.0163
 6748WAT      O27697   0.294   0.250   2.123 -0.1933 -0.3776  0.1059
 6748WAT     H127698   0.212   0.222   2.124 -0.9591  1.5143 -1.6237
 6748WAT     H227699   0.287   0.332   2.092  2.4761 -0.7297 -1.7678
 6748WAT    EPW27700   0.281   0.258   2.118  0.0348 -0.3867 -0.1329
 6749WAT      O27701   6.187   1.024   5.653  0.1310 -0.0948 -0.2032
 6749WAT     H127702   6.242   1.088   5.675  0.4383 -0.5003  0.2155
 6749WAT     H227703   6.169   0.985   5.729  1.3709 -1.6488 -0.6551
 6749WAT    EPW27704   6.192   1.028   5.668  0.2629  1.0327  0.4928
 6750WAT      O27705   0.299   0.803   2.765  0.3406  0.0284 -0.1157
 6750WAT     H127706   0.215   0.799   2.785  0.5045 -0.3278  0.5256
 6750WAT     H227707   0.324   0.881   2.797  0.0112  0.6323 -1.2964
 6750WAT    EPW27708   0.290   0.814   2.773 -0.6921  0.5283  0.5922
 6751WAT      O27709   1.215   5.895   6.559 -0.2289  0.1241  0.3486
 6751WAT     H127710   1.247   5.816   6.576 -0.4042 -0.3689 -1.4297
 6751WAT     H227711   1.242   5.912   6.478 -1.8808  0.9925 -0.0832
 6751WAT    EPW27712   1.223   5.886   6.550 -0.1772 -0.1871  0.0496
 6752WAT      O27713   6.975   6.315   1.277  0.0381 -0.1233  0.6165
 6752WAT     H127714   7.006   6.234   1.281 -0.3782 -0.4617 -1.6921
 6752WAT     H227715   7.045   6.365   1.295  0.8516 -0.9595 -0.1733
 6752WAT    EPW27716   6.990   6.311   1.281 -0.5791 -0.3579  0.5673
 6753WAT      O27717   6.835   5.541   5.109 -0.2171 -0.4238 -0.0669
 6753WAT     H127718   6.899   5.556   5.166  0.0331  0.1902 -0.4994
 6753WAT     H227719   6.763   5.542   5.158  0.0434 -0.4073  0.3148
 6753WAT    EPW27720   6.834   5.543   5.125  0.4418 -0.3528  0.2594
 6754WAT      O27721   2.203   4.364   1.912 -0.2168 -0.0660  0.2532
 6754WAT     H127722   2.192   4.427   1.973  1.4198  1.8099 -1.2400
 6754WAT     H227723   2.274   4.322   1.939 -0.7853 -0.7276  0.7675
 6754WAT    EPW27724   2.212   4.367   1.925 -0.0971 -0.5076 -0.3429
 6755WAT      O27725   7.661   2.755   3.026  0.0031 -0.3424  0.6111
 6755WAT     H127726   7.602   2.702   2.989 -0.5383  0.8291 -0.2626
 6755WAT     H227727   7.627   2.835   3.015  1.9730  0.4413 -0.4354
 6755WAT    EPW27728   7.647   2.759   3.019  0.2792 -0.0131 -0.1229
 6756WAT      O27729   4.048   0.226   5.170  0.2256 -0.1748  0.0686
 6756WAT     H127730   4.101   0.161   5.195 -0.1449 -0.4171  0.2407
 6756WAT     H227731   4.102   0.284   5.134  0.3329 -1.5484 -2.1246
 6756WAT    EPW27732   4.064   0.225   5.169  0.2692  0.3500  0.2786
 6757WAT      O27733   3.228   7.282   5.651 -0.3364  0.2633 -0.5171
 6757WAT     H127734   3.280   7.316   5.711 -0.2627  0.3515 -0.6305
 6757WAT     H227735   3.266   7.303   5.576 -0.0463 -0.4535 -0.5808
 6757WAT    EPW27736   3.241   7.290   5.649 -0.1917  0.2022  0.0469
 6758WAT      O27737   4.096   7.565   4.829 -0.3391  0.0512 -0.0780
 6758WAT     H127738   4.109   7.651   4.827  1.5055 -0.2009 -1.2548
 6758WAT     H227739   4.080   7.544   4.746  1.9562 -1.0256 -0.3546
 6758WAT    EPW27740   4.096   7.574   4.816  0.2150  0.0623  0.2312
 6759WAT      O27741   0.226   4.735   6.502 -0.4876  0.0428 -0.1822
 6759WAT     H127742   0.281   4.796   6.473  1.2488 -0.9646  0.8284
 6759WAT     H227743   0.279   4.672   6.531 -2.2006 -1.1767  0.4275
 6759WAT    EPW27744   0.242   4.735   6.502 -0.4478  0.6265  0.5232
 6760WAT      O27745   6.094   4.953   3.919 -0.0167  0.5089 -0.3893
 6760WAT     H127746   6.112   4.920   3.998 -0.1277 -0.2250 -0.6581
 6760WAT     H227747   6.008   4.971   3.924  0.4463  2.8527  0.4810
 6760WAT    EPW27748   6.084   4.950   3.932  0.1747  0.2201  0.8819
 6761WAT      O27749   5.288   2.755   6.723  0.2320  0.2695  0.0279
 6761WAT     H127750   5.336   2.767   6.795 -1.4612 -1.8109  1.6138
 6761WAT     H227751   5.225   2.814   6.730 -0.0999 -0.1282  0.4195
 6761WAT    EPW27752   5.286   2.765   6.735  0.0426 -0.2723  0.6912
 6762WAT      O27753   2.682   4.444   1.863  0.2760  0.4006 -0.2191
 6762WAT     H127754   2.652   4.526   1.870  0.1625  0.4295 -0.9498
 6762WAT     H227755   2.768   4.454   1.855  0.3723  0.3835  0.7681
 6762WAT    EPW27756   2.690   4.457   1.863  0.4873  1.0234 -0.3317
 6763WAT      O27757   5.155   2.600   5.675 -0.1238 -0.0520 -0.0146
 6763WAT     H127758   5.097   2.602   5.740  0.6322  1.3579  0.6669
 6763WAT     H227759   5.106   2.591   5.604 -1.3164  2.1127  0.4426
 6763WAT    EPW27760   5.139   2.599   5.674 -0.0957  0.3279 -0.1820
 6764WAT      O27761   3.004   4.208   2.358  0.2980  0.2489 -0.4847
 6764WAT     H127762   2.952   4.142   2.383 -2.2004  2.4331  0.4674
 6764WAT     H227763   2.952   4.258   2.309  1.8193  2.0358 -0.3842
 6764WAT    EPW27764   2.988   4.205   2.354  0.8677  0.0508  0.6302
 6765WAT      O27765   2.007   5.553   6.025  0.1712 -0.1426 -1.1321
 6765WAT     H127766   2.007   5.472   5.992  0.2158 -1.2285  1.3653
 6765WAT     H227767   1.955   5.547   6.095 -0.1225  2.1046 -1.0921
 6765WAT    EPW27768   1.999   5.540   6.030 -0.1233  0.4169  0.0842
 6766WAT      O27769   5.481   1.250   7.455 -0.3690 -0.4406 -0.4245
 6766WAT     H127770   5.550   1.253   7.402 -0.3284  0.2244 -0.3436
 6766WAT     H227771   5.441   1.327   7.442 -0.5330 -0.3960  0.2682
 6766WAT    EPW27772   5.485   1.262   7.445 -0.1390 -0.3412 -0.2457
 6767WAT      O27773   4.760   0.326   2.274 -0.2380 -0.4005 -0.1517
 6767WAT     H127774   4.813   0.260   2.296 -1.8661 -2.9212 -2.9351
 6767WAT     H227775   4.707   0.290   2.215 -3.2488  2.6849  0.3599
 6767WAT    EPW27776   4.760   0.311   2.268 -0.1650  0.0787 -0.1444
 6768WAT      O27777   5.650   2.873   0.931 -0.5741 -0.1975  0.1967
 6768WAT     H127778   5.640   2.838   1.011  0.2410 -2.5093 -0.6249
 6768WAT     H227779   5.579   2.921   0.921 -1.3159 -0.8464  1.8473
 6768WAT    EPW27780   5.638   2.875   0.941  0.2827  0.0556  0.0170
 6769WAT      O27781   0.723   6.538   7.470  0.0568  0.3009 -0.1801
 6769WAT     H127782   0.772   6.610   7.467  1.9641 -0.9712 -0.6721
 6769WAT     H227783   0.779   6.475   7.491 -1.3606 -1.2476 -0.8149
 6769WAT    EPW27784   0.738   6.540   7.473  0.1825 -0.3227  0.1410
 6770WAT      O27785   1.946   4.326   1.681 -0.7034  0.0914  0.9343
 6770WAT     H127786   1.868   4.297   1.656 -1.7419  0.5080  3.4055
 6770WAT     H227787   1.946   4.409   1.654 -0.5136 -0.2564 -0.2208
 6770WAT    EPW27788   1.935   4.334   1.673 -0.0690 -0.5160 -0.0214
 6771WAT      O27789   2.765   3.213   4.426 -0.3608 -0.3063  0.0183
 6771WAT     H127790   2.788   3.195   4.344 -2.4639 -0.0075 -0.6849
 6771WAT     H227791   2.764   3.134   4.465  2.9696 -0.2419  0.4989
 6771WAT    EPW27792   2.768   3.198   4.420  0.3471  0.4730 -0.3000
 6772WAT      O27793   1.077   2.270   4.921  0.2986  0.2527 -0.5531
 6772WAT     H127794   1.036   2.199   4.951  2.4141 -0.2786  1.3367
 6772WAT     H227795   1.135   2.238   4.864  1.8786  0.2739  0.9700
 6772WAT    EPW27796   1.079   2.255   4.917  0.4806  0.1951  0.0852
 6773WAT      O27797   5.791   1.841   3.261 -0.3515 -0.2082 -0.2778
 6773WAT     H127798   5.823   1.795   3.194 -0.2864 -1.6706  0.7163
 6773WAT     H227799   5.721   1.795   3.285  1.1927 -1.3406  2.4393
 6773WAT    EPW27800   5.785   1.828   3.255 -0.1245  0.7555  0.5394
 6774WAT      O27801   5.938   6.165   2.132  0.4466  0.0555 -0.2354
 6774WAT     H127802   5.957   6.119   2.061  0.8031 -0.0173 -0.0963
 6774WAT     H227803   5.852   6.157   2.140  0.6846 -2.0699  0.7920
 6774WAT    EPW27804   5.928   6.157   2.123  0.1816  0.1418  0.0956
 6775WAT      O27805   2.263   0.804   3.028  0.1102 -0.0453 -0.3852
 6775WAT     H127806   2.306   0.792   2.954 -0.0693  0.1564 -0.5227
 6775WAT     H227807   2.321   0.781   3.089  0.3221 -0.0263 -0.5784
 6775WAT    EPW27808   2.278   0.799   3.026 -0.2508  0.4964 -0.2140
 6776WAT      O27809   3.320   1.884   0.313 -0.3282 -0.4453 -0.4195
 6776WAT     H127810   3.303   1.871   0.228 -1.1906 -2.5138  0.0263
 6776WAT     H227811   3.356   1.964   0.314 -0.2859 -0.3637 -2.7203
 6776WAT    EPW27812   3.323   1.894   0.300  0.1837  0.3875  0.0305
 6777WAT      O27813   5.515   1.010   7.575  0.1760  0.6061 -0.5663
 6777WAT     H127814   5.511   1.088   7.534  0.1533  0.5780 -0.6184
 6777WAT     H227815   5.480   1.027   7.653 -0.7945  0.4163 -0.9432
 6777WAT    EPW27816   5.509   1.024   7.580  0.3877  0.2251 -0.2015
 6778WAT      O27817   6.118   1.403   1.106 -0.3276  0.0184 -0.1145
 6778WAT     H127818   6.062   1.350   1.146 -1.3118  0.2337 -1.1382
 6778WAT     H227819   6.091   1.483   1.128  0.2502  0.1192  0.2510
 6778WAT    EPW27820   6.106   1.407   1.115 -0.6901 -0.3183 -0.5466
 6779WAT      O27821   3.531   5.692   4.397 -0.4560  0.1848 -0.3670
 6779WAT     H127822   3.449   5.708   4.423 -1.1428 -1.6979 -1.1723
 6779WAT     H227823   3.529   5.607   4.377  1.8695 -0.0427  0.1708
 6779WAT    EPW27824   3.518   5.682   4.398  0.6657 -0.1832 -0.2309
 6780WAT      O27825   4.072   2.465   5.857 -0.0288 -0.3535 -0.0177
 6780WAT     H127826   4.014   2.434   5.800  0.2221  0.9316 -1.0114
 6780WAT     H227827   4.046   2.548   5.869  1.0172 -0.0594  0.2767
 6780WAT    EPW27828   4.059   2.473   5.850 -0.4418  0.2599 -0.0348
 6781WAT      O27829   6.706   0.947   4.774 -0.3549 -0.8913  0.3782
 6781WAT     H127830   6.650   0.952   4.841 -0.9266 -0.1214 -0.1308
 6781WAT     H227831   6.655   0.963   4.704  0.5293  0.0226 -0.0835
 6781WAT    EPW27832   6.690   0.950   4.773 -0.5374 -0.0763  0.0000
 6782WAT      O27833   4.822   3.222   1.219 -0.1454  0.0365  0.3384
 6782WAT     H127834   4.830   3.139   1.247  0.5257 -0.0255 -0.0013
 6782WAT     H227835   4.796   3.213   1.136 -1.6510  0.2099  0.7632
 6782WAT    EPW27836   4.819   3.208   1.211 -0.2462 -0.4550 -0.0344
 6783WAT      O27837   3.990   0.620   2.766 -0.1356 -0.7003  0.4125
 6783WAT     H127838   3.997   0.705   2.750  1.4012 -0.6820  1.0249
 6783WAT     H227839   3.912   0.599   2.733  0.2330  0.5631 -1.3712
 6783WAT    EPW27840   3.979   0.629   2.759 -0.1463  0.2433  0.4771
 6784WAT      O27841   3.321   5.219   5.787  0.0365  0.7617 -0.1619
 6784WAT     H127842   3.280   5.293   5.769 -0.8292  0.5658  0.9173
 6784WAT     H227843   3.388   5.244   5.837  0.7671  0.9785 -1.2007
 6784WAT    EPW27844   3.325   5.233   5.792 -0.0728  0.0032 -0.5352
 6785WAT      O27845   1.281   0.658   0.257  0.4024 -0.4125 -0.4895
 6785WAT     H127846   1.313   0.717   0.201 -2.1781  0.5233 -1.1403
 6785WAT     H227847   1.207   0.632   0.219 -1.6536  0.4862  2.5469
 6785WAT    EPW27848   1.275   0.663   0.243  0.5394 -0.4293  0.1551
 6786WAT      O27849   4.256   5.267   5.297 -0.2630  0.4391 -0.0049
 6786WAT     H127850   4.177   5.247   5.267 -0.0148 -0.1448 -0.2849
 6786WAT     H227851   4.310   5.240   5.234  0.2177 -0.1590  0.6385
 6786WAT    EPW27852   4.253   5.260   5.283 -0.0935  0.0761  0.0890
 6787WAT      O27853   0.562   3.820   1.451  0.6652 -0.1529  0.3972
 6787WAT     H127854   0.514   3.884   1.416 -0.9235 -0.4103  1.9431
 6787WAT     H227855   0.579   3.767   1.383  1.2192  1.3927 -0.7248
 6787WAT    EPW27856   0.557   3.821   1.436  0.7308 -0.2704  0.9450
 6788WAT      O27857   3.908   4.874   6.018  0.0187  0.1979  0.2086
 6788WAT     H127858   3.986   4.882   6.055  0.6875 -2.0361 -0.5381
 6788WAT     H227859   3.921   4.904   5.937 -0.0662  0.4390  0.2861
 6788WAT    EPW27860   3.921   4.880   6.011 -0.2208  0.6369 -0.1629
 6789WAT      O27861   0.278   1.322   5.824  0.0256 -0.1203 -0.1984
 6789WAT     H127862   0.221   1.327   5.759 -2.3252 -2.4769  1.4824
 6789WAT     H227863   0.278   1.403   5.857  1.4102  1.1937 -3.0205
 6789WAT    EPW27864   0.270   1.335   5.819 -0.2620 -0.8004  0.0682
 6790WAT      O27865   2.248   4.837   1.396 -0.7948  0.1132  0.6802
 6790WAT     H127866   2.206   4.804   1.327  0.7428  1.7138 -1.1298
 6790WAT     H227867   2.189   4.833   1.460 -2.8392  0.0007 -1.1005
 6790WAT    EPW27868   2.233   4.831   1.395 -1.0317 -0.4811 -0.1776
 6791WAT      O27869   1.446   3.821   4.755  0.4711 -0.6305  0.1227
 6791WAT     H127870   1.366   3.853   4.744  1.4097  1.8295 -0.1256
 6791WAT     H227871   1.437   3.767   4.823 -0.9253  1.6397  1.9009
 6791WAT    EPW27872   1.433   3.818   4.763  0.3331 -0.1004 -0.3900
 6792WAT      O27873   2.611   3.085   4.704 -0.5621  0.5776 -0.8810
 6792WAT     H127874   2.650   3.118   4.775 -0.5892  0.3611 -0.7624
 6792WAT     H227875   2.527   3.109   4.714 -0.8062 -0.4424 -0.2244
 6792WAT    EPW27876   2.604   3.094   4.716  0.5852  0.0634  0.1007
 6793WAT      O27877   4.512   4.649   0.510  0.1204  0.3095 -0.5648
 6793WAT     H127878   4.427   4.627   0.508  0.0710  0.3715  0.4175
 6793WAT     H227879   4.528   4.674   0.428 -0.8475  0.4255 -0.7331
 6793WAT    EPW27880   4.502   4.649   0.498  0.3391 -0.1944  0.1721
 6794WAT      O27881   0.103   6.652   0.915  0.1524  0.8223 -0.0228
 6794WAT     H127882   0.039   6.612   0.871  1.3478  0.1264 -1.2041
 6794WAT     H227883   0.120   6.597   0.981 -0.1851  0.8178  0.0621
 6794WAT    EPW27884   0.096   6.638   0.918 -0.0243  0.2650  0.3904
 6795WAT      O27885   2.803   2.432   3.989 -0.3282 -0.2982 -0.3977
 6795WAT     H127886   2.878   2.388   3.988  0.0429  0.3164 -1.0515
 6795WAT     H227887   2.814   2.490   4.053 -0.0702  0.0558 -0.7526
 6795WAT    EPW27888   2.816   2.434   3.998  0.3812  0.2680 -0.6008
 6796WAT      O27889  -0.007   4.368   3.023  0.9864  0.2607  0.1092
 6796WAT     H127890   0.079   4.376   3.016  0.7624  3.0763 -0.7512
 6796WAT     H227891  -0.032   4.440   3.065 -1.1350  0.9423 -2.0411
 6796WAT    EPW27892   0.002   4.379   3.028  0.4991 -0.3996 -0.2993
 6797WAT      O27893   3.344   6.096   4.235 -0.0511 -0.6427  0.4794
 6797WAT     H127894   3.405   6.152   4.263 -0.1213 -1.4299  2.3489
 6797WAT     H227895   3.389   6.022   4.225 -0.7838 -1.4628  2.7367
 6797WAT    EPW27896   3.360   6.093   4.237  1.4970  0.6720  0.6209
 6798WAT      O27897   2.701   0.356   7.272 -0.5275  0.0729 -0.5817
 6798WAT     H127898   2.633   0.334   7.322 -0.3948  0.0538 -0.4106
 6798WAT     H227899   2.735   0.426   7.313 -0.1069 -0.2559 -0.3602
 6798WAT    EPW27900   2.696   0.363   7.285  0.9346 -0.5097 -0.1288
 6799WAT      O27901   5.058   2.309   4.551 -0.4880 -0.0782  0.2756
 6799WAT     H127902   5.110   2.239   4.561 -0.1643 -0.2970 -2.2956
 6799WAT     H227903   5.104   2.361   4.498 -1.9779  0.7493 -0.2652
 6799WAT    EPW27904   5.073   2.307   4.545  0.1335 -0.2192  0.1519
 6800WAT      O27905   1.862   0.618   5.856  0.2065  0.4185  0.0857
 6800WAT     H127906   1.851   0.592   5.774 -2.1544  0.6687  0.2566
 6800WAT     H227907   1.902   0.695   5.849 -2.5664  1.9002 -1.0925
 6800WAT    EPW27908   1.866   0.625   5.843 -0.0519 -0.0577 -0.1555
 6801WAT      O27909   3.762   1.734   6.741  0.4722  0.6008 -0.4033
 6801WAT     H127910   3.796   1.654   6.733 -0.1482  0.3767 -0.9473
 6801WAT     H227911   3.763   1.765   6.659 -0.9881  0.4106 -0.5360
 6801WAT    EPW27912   3.767   1.726   6.728 -0.3598 -0.0335 -0.1934
 6802WAT      O27913   2.489   5.157   6.399 -1.1509  0.3562  0.1768
 6802WAT     H127914   2.559   5.201   6.426 -1.4212 -0.3336  2.1733
 6802WAT     H227915   2.467   5.196   6.325  0.2394  1.7794  0.4700
 6802WAT    EPW27916   2.496   5.169   6.392  0.0256 -0.0107  0.5573
 6803WAT      O27917   0.590   5.258   2.954  0.0559  0.1030  0.2797
 6803WAT     H127918   0.596   5.223   3.034 -0.2492 -0.8839 -0.1141
 6803WAT     H227919   0.673   5.265   2.929  0.1389 -2.1574 -0.3649
 6803WAT    EPW27920   0.603   5.254   2.962 -0.0385 -0.4454 -0.5200
 6804WAT      O27921   0.360   4.994   7.491  0.3214 -0.1187  0.7888
 6804WAT     H127922   0.340   5.065   7.538 -2.1845 -0.8952  1.0190
 6804WAT     H227923   0.442   5.010   7.464  0.3737  2.1631  2.0495
 6804WAT    EPW27924   0.369   5.007   7.494 -0.1284  0.3542  0.2166
 6805WAT      O27925   1.654   6.104   1.405  0.7954 -0.5643  0.1791
 6805WAT     H127926   1.629   6.138   1.482  1.8593 -0.1066  0.3447
 6805WAT     H227927   1.664   6.174   1.354 -0.2915 -0.8921 -0.5138
 6805WAT    EPW27928   1.652   6.119   1.409 -0.2731  0.2928  0.0180
 6806WAT      O27929   0.912   5.722   3.134  0.5898  0.1112 -0.6808
 6806WAT     H127930   0.898   5.759   3.056  0.2563  0.6667 -0.3704
 6806WAT     H227931   0.999   5.725   3.143  0.5442  1.4173 -0.4071
 6806WAT    EPW27932   0.923   5.728   3.124  0.6029  0.3527  0.1367
 6807WAT      O27933   5.921   3.957   5.855  0.2091  0.3968  0.2103
 6807WAT     H127934   5.930   4.039   5.883 -1.3848  0.1117  1.7545
 6807WAT     H227935   5.836   3.941   5.864  0.4944 -1.4639  0.0711
 6807WAT    EPW27936   5.910   3.967   5.861  0.3944  0.0097 -0.2554
 6808WAT      O27937   6.642   5.582   3.114  0.0118 -0.0316  0.1425
 6808WAT     H127938   6.650   5.611   3.032 -0.3163 -2.0437 -0.6652
 6808WAT     H227939   6.565   5.541   3.114 -0.2302  0.3439  1.6296
 6808WAT    EPW27940   6.632   5.580   3.102 -0.1399 -0.3734 -0.5790
 6809WAT      O27941   5.116   0.976   1.694  0.0610  0.0253  0.1547
 6809WAT     H127942   5.103   1.019   1.619 -0.2996 -2.1562 -1.1418
 6809WAT     H227943   5.192   0.935   1.680 -0.5768 -1.3120  0.4939
 6809WAT    EPW27944   5.125   0.976   1.681 -0.9187  0.0762 -0.0382
 6810WAT      O27945   0.933   2.912   4.725  0.0280  0.0708 -0.0416
 6810WAT     H127946   0.880   2.843   4.723  0.0292  0.0667  0.0701
 6810WAT     H227947   0.989   2.897   4.659  0.9897 -0.7992  0.9323
 6810WAT    EPW27948   0.933   2.900   4.715  0.7662  0.1967 -0.1958
 6811WAT      O27949   4.924   4.030   4.361  0.2649  0.8690 -0.4855
 6811WAT     H127950   4.997   4.066   4.329  0.8522  0.5814  0.4949
 6811WAT     H227951   4.912   4.071   4.437 -0.1339  0.3349 -0.2536
 6811WAT    EPW27952   4.933   4.041   4.368 -0.1657  0.2581  0.0246
 6812WAT      O27953   2.859   6.646   2.067 -0.0823  0.0478 -0.1415
 6812WAT     H127954   2.887   6.690   1.998 -0.8409 -1.0116 -1.1675
 6812WAT     H227955   2.787   6.689   2.091  1.3961  1.8099  1.5061
 6812WAT    EPW27956   2.852   6.659   2.060 -0.1239 -0.3908 -0.3262
 6813WAT      O27957   1.838   0.695   6.994 -0.0926  0.1748  0.3021
 6813WAT     H127958   1.788   0.757   6.958 -0.2391  0.0530  0.2966
 6813WAT     H227959   1.879   0.737   7.059 -0.0997  0.3072  0.2217
 6813WAT    EPW27960   1.837   0.710   6.998 -0.0611 -0.6354 -0.4707
 6814WAT      O27961   5.382   7.429   5.159  0.3682 -0.0838  0.1359
 6814WAT     H127962   5.353   7.383   5.090  0.0492  0.5166 -0.1415
 6814WAT     H227963   5.459   7.461   5.131 -0.6736  1.8351 -0.7302
 6814WAT    EPW27964   5.389   7.427   5.144 -0.7356 -0.0256 -0.3623
 6815WAT      O27965   1.074   7.195   1.944  0.1490 -0.2503 -0.3786
 6815WAT     H127966   1.089   7.259   2.002  2.8013 -2.7011  1.9532
 6815WAT     H227967   1.036   7.133   1.992  3.1679 -2.7066 -0.8904
 6815WAT    EPW27968   1.070   7.195   1.960  0.0237 -0.4734  0.2727
 6816WAT      O27969   1.068   6.696   3.446  0.5301  0.0847 -0.4107
 6816WAT     H127970   1.011   6.727   3.387  0.6934  2.0735  0.3700
 6816WAT     H227971   1.017   6.667   3.510  0.3581  1.1033 -0.0692
 6816WAT    EPW27972   1.052   6.697   3.446  0.4178 -0.3718  0.1353
 6817WAT      O27973   6.451   3.422   0.671 -0.0905 -0.1973  0.5425
 6817WAT     H127974   6.479   3.454   0.747  1.8944  0.7011 -0.4660
 6817WAT     H227975   6.520   3.433   0.618 -1.4414 -0.6382 -1.4266
 6817WAT    EPW27976   6.466   3.428   0.674  0.1959 -0.1925  0.5602
 6818WAT      O27977   6.242   3.891   6.998  0.3446  0.2569  0.4005
 6818WAT     H127978   6.204   3.936   6.934 -0.1899 -0.4764  0.1950
 6818WAT     H227979   6.229   3.808   6.976  0.1786 -0.0108  1.4372
 6818WAT    EPW27980   6.234   3.886   6.986  0.2046  0.5240  0.4199
 6819WAT      O27981   7.291   2.971   0.378 -0.0725  0.3163 -0.6262
 6819WAT     H127982   7.304   2.885   0.384  1.1945  0.5455  0.2186
 6819WAT     H227983   7.317   3.002   0.455 -1.1891  1.3945 -0.6443
 6819WAT    EPW27984   7.296   2.963   0.390  0.0142 -0.0963  0.4357
 6820WAT      O27985   5.901   6.954   2.091 -0.1722  0.0018  0.1376
 6820WAT     H127986   5.958   6.950   2.024 -0.8759  1.4974 -0.5877
 6820WAT     H227987   5.942   6.910   2.154  2.8027  2.6455  0.3495
 6820WAT    EPW27988   5.916   6.947   2.090  0.2715 -0.1518 -0.4944
 6821WAT      O27989   3.766   5.399   7.554 -0.4257 -0.2201 -0.0333
 6821WAT     H127990   3.805   5.357   7.619 -0.1337 -1.9279 -1.2283
 6821WAT     H227991   3.760   5.481   7.582 -0.9589 -1.0221  2.4127
 6821WAT    EPW27992   3.771   5.405   7.567  0.5062  0.2874  0.1714
 6822WAT      O27993   2.640   6.419   1.938  0.6497 -0.3405 -0.4333
 6822WAT     H127994   2.565   6.379   1.955  0.9033 -1.8897 -2.5253
 6822WAT     H227995   2.628   6.500   1.969 -0.6390 -1.4280  2.1255
 6822WAT    EPW27996   2.627   6.425   1.945 -0.8477  0.2892 -0.3508
 6823WAT      O27997   2.142   2.009   5.368  0.2254  0.9211  0.2033
 6823WAT     H127998   2.073   1.957   5.377  1.7101 -1.2473 -0.1246
 6823WAT     H227999   2.135   2.039   5.286  1.0879 -1.6276 -0.9066
 6823WAT    EPW28000   2.131   2.006   5.357  0.1706 -0.2435  0.3868
 6824WAT      O28001   4.967   6.453   4.115 -0.3549  0.2434 -0.2266
 6824WAT     H128002   4.913   6.448   4.046 -1.0321 -0.4962  0.3311
 6824WAT     H228003   4.969   6.371   4.145 -0.4019  0.6262  0.8660
 6824WAT    EPW28004   4.959   6.440   4.109 -0.3252  0.1986 -0.1079
 6825WAT      O28005   3.191   2.278   1.088  0.2986 -0.1622 -0.3220
 6825WAT     H128006   3.116   2.236   1.103 -0.3055  1.4541  1.5052
 6825WAT     H228007   3.245   2.247   1.149  1.6004 -2.1472 -2.2982
 6825WAT    EPW28008   3.188   2.267   1.099  0.5149  0.0851  0.1869
 6826WAT      O28009   6.501   5.711   5.952  0.7043 -0.1253  0.5663
 6826WAT     H128010   6.476   5.632   5.923 -0.1509  0.5264 -0.5867
 6826WAT     H228011   6.569   5.694   6.003  2.1831 -1.4132 -1.6853
 6826WAT    EPW28012   6.507   5.697   5.955  0.5753 -0.4654 -0.2002
 6827WAT      O28013   4.709   1.466   3.845  0.5373  0.1805  0.3302
 6827WAT     H128014   4.722   1.410   3.779 -2.1710  1.4577 -1.5148
 6827WAT     H228015   4.749   1.428   3.912  2.1759 -1.9886 -1.6723
 6827WAT    EPW28016   4.717   1.452   3.845  0.5005  0.1682  0.3521
 6828WAT      O28017   7.115   6.811   6.190  0.1859 -0.1565 -0.1803
 6828WAT     H128018   7.128   6.796   6.106  0.9177 -2.3135  0.2528
 6828WAT     H228019   7.195   6.809   6.225 -0.0383  1.3386  0.5193
 6828WAT    EPW28020   7.128   6.809   6.183  0.3102 -0.1749  0.0184
 6829WAT      O28021   4.758   1.312   1.132  0.0478  0.2554 -0.1080
 6829WAT     H128022   4.768   1.229   1.106 -1.4116 -0.0569  0.2361
 6829WAT     H228023   4.683   1.311   1.176 -0.0408  1.7835 -0.1651
 6829WAT    EPW28024   4.749   1.300   1.134  0.5665 -0.2829  0.1345
 6830WAT      O28025   6.959   4.526   2.924  0.0124 -0.0766  0.3695
 6830WAT     H128026   6.968   4.575   2.853 -1.8209  0.1322  0.2278
 6830WAT     H228027   7.001   4.452   2.905  1.3636  0.7676 -0.0670
 6830WAT    EPW28028   6.966   4.522   2.911 -0.1153  0.0136 -0.5187
 6831WAT      O28029   0.213   1.308   1.653  0.2500  0.1492 -0.1667
 6831WAT     H128030   0.193   1.388   1.683  0.1911  0.8641 -1.9440
 6831WAT     H228031   0.147   1.289   1.600 -0.1296 -1.4719  0.8181
 6831WAT    EPW28032   0.200   1.317   1.650  0.3394 -0.0623 -0.7335
 6832WAT      O28033   3.332   2.088   6.313 -0.2592  0.2380  0.7830
 6832WAT     H128034   3.397   2.040   6.344  1.1976 -1.6534 -4.2381
 6832WAT     H228035   3.372   2.158   6.280 -1.2157  0.6777  0.5045
 6832WAT    EPW28036   3.347   2.091   6.313  0.0138 -0.3051  0.1664
 6833WAT      O28037   0.364   2.118   6.484 -0.0976 -0.2962 -0.1390
 6833WAT     H128038   0.428   2.173   6.503 -0.6488 -0.4110  2.4302
 6833WAT     H228039   0.294   2.170   6.477 -0.5576 -0.5096  1.9760
 6833WAT    EPW28040   0.363   2.134   6.486  0.3582  0.1965  0.0471
 6834WAT      O28041   1.830   3.479   0.353  0.0038 -0.2618  0.0468
 6834WAT     H128042   1.787   3.476   0.278 -2.5249 -0.1940  1.3680
 6834WAT     H228043   1.770   3.507   0.410  1.8370 -0.1339  2.0788
 6834WAT    EPW28044   1.815   3.483   0.351  0.1120  0.3451  0.1701
 6835WAT      O28045   6.697   6.374   3.355  0.1025  0.3182 -0.2134
 6835WAT     H128046   6.634   6.434   3.341  0.4403  0.7250 -0.0065
 6835WAT     H228047   6.710   6.340   3.276 -0.4021  0.2063 -0.2557
 6835WAT    EPW28048   6.689   6.378   3.342  0.2303  0.7176  0.1881
 6836WAT      O28049   0.130   4.959   5.018 -0.5536  0.0844  0.7981
 6836WAT     H128050   0.060   4.955   4.966 -1.3945 -1.4061  1.9723
 6836WAT     H228051   0.170   4.883   5.006  0.0359  0.2981  1.2956
 6836WAT    EPW28052   0.126   4.947   5.009 -0.0404 -0.1017 -0.0816
 6837WAT      O28053   0.179   1.631   6.647  0.3663 -0.4526 -0.2532
 6837WAT     H128054   0.214   1.625   6.567  1.4321  0.0338  0.1647
 6837WAT     H228055   0.185   1.549   6.677  2.5549 -0.1263  0.3607
 6837WAT    EPW28056   0.185   1.618   6.639 -0.2111 -0.2726  0.3380
 6838WAT      O28057   1.052   4.996   4.885 -0.2310  0.4746  0.6779
 6838WAT     H128058   1.075   5.014   4.802 -1.9890 -0.0877  0.0185
 6838WAT     H228059   1.126   5.009   4.930  1.3087 -1.0205 -1.2222
 6838WAT    EPW28060   1.067   5.000   4.879 -0.1520  0.1064  0.0694
 6839WAT      O28061   5.953   6.931   6.018  0.4444  0.3279 -0.0319
 6839WAT     H128062   5.963   7.018   6.015  3.4165  0.0965  0.4797
 6839WAT     H228063   5.911   6.913   5.944  2.7335  1.9440 -1.8819
 6839WAT    EPW28064   5.948   6.942   6.007  1.0258 -0.1619  0.3300
 6840WAT      O28065   0.990   6.449   6.991 -0.2393  0.0189  0.4722
 6840WAT     H128066   0.934   6.398   6.948  0.9627  0.6077 -1.9912
 6840WAT     H228067   1.066   6.408   6.983  0.2243  0.6990  1.1640
 6840WAT    EPW28068   0.993   6.435   6.984  0.4821  0.4222  0.2035
 6841WAT      O28069   0.070   4.224   2.106  0.1721  0.0805  0.0841
 6841WAT     H128070   0.143   4.177   2.111 -0.3483 -0.9150 -1.3211
 6841WAT     H228071   0.056   4.247   2.189  0.3154 -2.4310  0.8810
 6841WAT    EPW28072   0.079   4.221   2.119 -0.1467 -0.4031  0.1996
 6842WAT      O28073   4.107   1.343   2.416 -0.3867  0.0069 -0.1431
 6842WAT     H128074   4.162   1.286   2.452  1.8900  2.5859  0.7892
 6842WAT     H228075   4.127   1.341   2.331 -0.0251 -0.2595 -0.0517
 6842WAT    EPW28076   4.118   1.334   2.409  0.2887 -0.1260  0.3259
 6843WAT      O28077   7.414   3.658   0.765  0.3730 -0.1988  0.0491
 6843WAT     H128078   7.398   3.587   0.813 -0.9357 -0.4418 -0.7056
 6843WAT     H228079   7.335   3.684   0.739  0.7249  1.9940  0.8971
 6843WAT    EPW28080   7.400   3.651   0.768 -0.3487  0.1452  0.1356
 6844WAT      O28081   5.980   5.042   1.247 -0.0939 -0.1708 -0.6462
 6844WAT     H128082   5.913   5.062   1.298  0.9998  0.2565  0.6867
 6844WAT     H228083   6.042   5.016   1.303  0.5890 -1.3898 -1.8833
 6844WAT    EPW28084   5.979   5.041   1.262 -0.1745  0.3081  0.5697
 6845WAT      O28085   5.447   2.443   7.246  0.4785 -0.4324 -0.0341
 6845WAT     H128086   5.369   2.404   7.241  0.4303 -0.4768  0.9772
 6845WAT     H228087   5.496   2.387   7.291  0.8294  0.0062  0.1424
 6845WAT    EPW28088   5.442   2.429   7.252 -0.1578 -0.2837  0.0940
 6846WAT      O28089   6.071   3.256   5.061  0.5475  0.3242 -0.0886
 6846WAT     H128090   6.007   3.207   5.093  0.0864  1.1888  0.3613
 6846WAT     H228091   6.041   3.338   5.070  2.3002  0.8712  1.5658
 6846WAT    EPW28092   6.057   3.261   5.067 -0.3428 -0.4292  0.2010
 6847WAT      O28093   1.568   6.442   3.538 -0.5614 -0.1218 -0.1711
 6847WAT     H128094   1.593   6.382   3.596  0.7009  0.4653 -0.0771
 6847WAT     H228095   1.636   6.450   3.485 -1.1779  0.3557 -0.9162
 6847WAT    EPW28096   1.582   6.435   3.539  0.5692  0.1749  0.1462
 6848WAT      O28097   2.662   3.027   2.501 -0.4918  0.1088  0.0726
 6848WAT     H128098   2.680   3.067   2.576  0.0200 -1.1695  0.6615
 6848WAT     H228099   2.589   3.066   2.474 -1.2065 -0.0411  1.7095
 6848WAT    EPW28100   2.654   3.039   2.508  0.2923  0.1151  0.3727
 6849WAT      O28101   4.091   2.288   5.500 -0.0993  0.3100 -1.1860
 6849WAT     H128102   4.084   2.375   5.508 -0.6670  0.2040 -0.4302
 6849WAT     H228103   4.156   2.268   5.555 -0.7804  0.1269 -0.4308
 6849WAT    EPW28104   4.100   2.298   5.509  0.1713  0.2769 -0.3078
 6850WAT      O28105   1.082   1.929   7.473 -0.1260  0.0238 -0.6720
 6850WAT     H128106   1.017   1.983   7.493 -0.0633 -0.6284  1.5685
 6850WAT     H228107   1.095   1.883   7.546  1.2877 -1.5094 -1.7772
 6850WAT    EPW28108   1.075   1.930   7.487 -0.5052 -0.0918  0.4044
 6851WAT      O28109   7.151   6.987   2.956 -0.2903  0.2620  0.6953
 6851WAT     H128110   7.162   6.937   2.885  1.1144  0.2578  0.8916
 6851WAT     H228111   7.076   7.029   2.940  0.4985  1.0259 -1.2763
 6851WAT    EPW28112   7.142   6.986   2.943  0.4979  0.6006  0.3318
 6852WAT      O28113   4.232   5.255   0.703 -0.1176  0.4870  0.8003
 6852WAT     H128114   4.176   5.217   0.759  0.2418 -0.2113  0.6956
 6852WAT     H228115   4.285   5.190   0.679  1.2005  1.2875  1.4468
 6852WAT    EPW28116   4.231   5.240   0.708 -0.3166  0.1578  0.2574
 6853WAT      O28117   0.469   0.048   1.393 -0.0140  0.0163  0.4747
 6853WAT     H128118   0.399   0.077   1.436 -0.4575  2.5293 -1.6833
 6853WAT     H228119   0.439   0.032   1.313  1.4365 -1.2333  0.1296
 6853WAT    EPW28120   0.454   0.050   1.388 -0.1314 -0.2058 -0.3712
 6854WAT      O28121   4.334   1.582   6.859  0.0198 -0.3665  0.4244
 6854WAT     H128122   4.394   1.630   6.901  0.6269  2.0393 -2.7978
 6854WAT     H228123   4.289   1.640   6.813 -0.8860 -2.6643 -1.8653
 6854WAT    EPW28124   4.336   1.597   6.859 -0.7178  0.0810 -0.4139
 6855WAT      O28125   7.056   4.053   6.734  0.1731 -0.0126  0.0409
 6855WAT     H128126   7.042   3.968   6.716 -1.4500  0.0846  0.7211
 6855WAT     H228127   6.987   4.093   6.700  0.6038  0.9801  0.3083
 6855WAT    EPW28128   7.044   4.046   6.726  0.2707  0.2115 -0.0326
 6856WAT      O28129   6.486   4.952   2.090 -0.1363  0.5493  0.4479
 6856WAT     H128130   6.550   4.899   2.117 -0.2963  0.3911  0.5149
 6856WAT     H228131   6.490   5.019   2.146  0.1295  0.6569  0.3040
 6856WAT    EPW28132   6.496   4.954   2.102 -0.5873 -0.2748  0.1094
 6857WAT      O28133   3.279   1.043   1.501 -0.3562 -0.1459 -0.1017
 6857WAT     H128134   3.212   1.023   1.448  1.1385  0.4461 -2.3922
 6857WAT     H228135   3.299   1.125   1.477  1.2883 -0.3877  0.3851
 6857WAT    EPW28136   3.272   1.052   1.490  0.2063 -0.0975 -0.6975
 6858WAT      O28137   0.622   4.832   2.255 -0.0067  0.2426  0.2672
 6858WAT     H128138   0.695   4.804   2.217 -0.3833  2.2614 -2.1808
 6858WAT     H228139   0.638   4.917   2.270 -1.7024  0.6373  0.0471
 6858WAT    EPW28140   0.635   4.840   2.252  0.0838 -0.3287 -0.3516
 6859WAT      O28141   2.845   6.799   6.394 -0.2702 -1.0120  0.1873
 6859WAT     H128142   2.769   6.799   6.437 -1.1529  1.1826 -1.1663
 6859WAT     H228143   2.899   6.842   6.448 -0.7651 -0.1881  0.0415
 6859WAT    EPW28144   2.842   6.806   6.408  0.0258 -0.1211 -0.1832
 6860WAT      O28145   7.005   0.096   1.856 -0.0151  0.4407 -0.2746
 6860WAT     H128146   7.050   0.156   1.812 -0.7579  0.5337 -0.9308
 6860WAT     H228147   7.031   0.108   1.939  1.7450 -0.0512 -0.7181
 6860WAT    EPW28148   7.015   0.106   1.862 -0.0920 -0.4565 -0.2558
 6861WAT      O28149   4.745   2.180   3.354  0.4332 -0.1463 -0.5116
 6861WAT     H128150   4.681   2.234   3.330  0.4215  0.5266  0.9163
 6861WAT     H228151   4.814   2.211   3.310  0.1973  0.3502 -0.5429
 6861WAT    EPW28152   4.746   2.193   3.344 -0.1590  0.3396 -0.1525
 6862WAT      O28153   1.189   5.832   5.879 -0.4772 -0.8390 -0.3417
 6862WAT     H128154   1.130   5.871   5.829  0.6252 -0.4657 -1.4065
 6862WAT     H228155   1.239   5.898   5.907 -0.3971 -1.1723  0.3309
 6862WAT    EPW28156   1.188   5.848   5.876  0.6009 -0.0395 -0.0854
 6863WAT      O28157   0.963   1.054   2.197  0.0845  0.3262  0.0075
 6863WAT     H128158   0.885   1.057   2.237 -0.0521  0.4026 -0.2633
 6863WAT     H228159   0.986   1.138   2.191  0.3790  0.2824  0.4540
 6863WAT    EPW28160   0.955   1.067   2.202 -0.5699 -0.3958 -0.2102
 6864WAT      O28161   1.580   1.692   1.467  0.0542  0.5829 -0.4955
 6864WAT     H128162   1.642   1.662   1.414  0.0452  0.8795 -0.6761
 6864WAT     H228163   1.539   1.753   1.419 -0.2090  0.5738 -0.2900
 6864WAT    EPW28164   1.583   1.697   1.452  0.6778  0.0415 -0.3265
 6865WAT      O28165   6.186   6.693   6.975  0.1334  0.3137  0.2565
 6865WAT     H128166   6.270   6.677   6.989  0.0805  0.1733  0.4234
 6865WAT     H228167   6.179   6.779   6.985  0.3905  0.4302 -0.4793
 6865WAT    EPW28168   6.197   6.703   6.978 -0.4079 -0.0740 -0.1395
 6866WAT      O28169   2.818   5.664   0.225 -0.4200 -0.3699  0.5431
 6866WAT     H128170   2.901   5.658   0.197 -0.3145  0.3539  0.6846
 6866WAT     H228171   2.775   5.611   0.171  0.0556 -0.3285  0.1110
 6866WAT    EPW28172   2.824   5.655   0.213 -0.3521  0.8733 -0.2427
 6867WAT      O28173   1.181   0.341   0.184 -0.0359  0.6424 -0.1802
 6867WAT     H128174   1.126   0.408   0.175 -0.6032  0.6046  2.2729
 6867WAT     H228175   1.207   0.347   0.268  1.5214 -0.9932 -0.4835
 6867WAT    EPW28176   1.177   0.352   0.195  0.4707 -0.5996  0.6284
 6868WAT      O28177   2.647   6.546   7.468 -0.0752 -0.0507 -0.6972
 6868WAT     H128178   2.702   6.528   7.534 -1.1673 -3.2267 -0.5068
 6868WAT     H228179   2.571   6.514   7.496 -0.9736  0.1089 -2.8087
 6868WAT    EPW28180   2.644   6.539   7.482  0.3584  0.1020 -0.9093
 6869WAT      O28181   3.878   5.662   4.037  0.2858  0.1902  0.1242
 6869WAT     H128182   3.887   5.737   4.081  0.7371 -0.8314  1.8997
 6869WAT     H228183   3.958   5.646   4.007 -0.0301  0.9063 -1.1881
 6869WAT    EPW28184   3.891   5.671   4.039 -0.2487  0.2145  0.5164
 6870WAT      O28185   6.033   4.563   5.311 -0.0713  0.1802 -0.0492
 6870WAT     H128186   6.002   4.489   5.277  1.5358 -0.8289  0.5803
 6870WAT     H228187   5.968   4.590   5.363 -1.6924  0.6222 -2.1788
 6870WAT    EPW28188   6.019   4.556   5.314 -0.3763 -0.0916  0.1818
 6871WAT      O28189   1.589   2.923   5.886  0.6706 -0.4300  0.3635
 6871WAT     H128190   1.671   2.945   5.867  0.0467  1.8628 -0.0019
 6871WAT     H228191   1.574   2.964   5.962 -0.2378 -0.5314  0.2515
 6871WAT    EPW28192   1.599   2.932   5.894  0.2817  0.3208  0.0044
 6872WAT      O28193   1.511   2.997   3.002 -0.7406 -0.5462 -0.4809
 6872WAT     H128194   1.553   2.922   2.994  1.1662  0.5625 -1.6583
 6872WAT     H228195   1.497   3.004   3.088 -0.4897 -1.9849 -0.3083
 6872WAT    EPW28196   1.515   2.987   3.014  0.1708 -0.0869  0.4111
 6873WAT      O28197   2.677   0.570   6.559 -0.0598  0.6925  0.4044
 6873WAT     H128198   2.616   0.576   6.620 -1.6511  0.2630 -1.0753
 6873WAT     H228199   2.633   0.550   6.487  1.8080  0.5472 -0.7800
 6873WAT    EPW28200   2.662   0.568   6.557 -0.9153  0.4312 -0.1498
 6874WAT      O28201   5.050   3.533   6.494 -0.1330  0.3439  0.5546
 6874WAT     H128202   5.097   3.593   6.453  0.3181  0.3265  1.0323
 6874WAT     H228203   5.072   3.459   6.454  1.1925  0.1617  1.5480
 6874WAT    EPW28204   5.060   3.531   6.482  0.4364  0.0624 -0.1071
 6875WAT      O28205   6.296   4.508   4.824  0.4169  0.0911  0.9195
 6875WAT     H128206   6.248   4.445   4.786 -0.5398  0.2076  1.8968
 6875WAT     H228207   6.362   4.465   4.861  0.0287 -0.2810  1.1791
 6875WAT    EPW28208   6.299   4.492   4.824 -0.0202 -0.1402 -0.2270
 6876WAT      O28209   1.252   1.660   7.253  0.8386  0.6090 -0.6939
 6876WAT     H128210   1.324   1.643   7.300  2.4587  0.9863 -2.8315
 6876WAT     H228211   1.188   1.658   7.311  2.3096 -1.7752  1.0069
 6876WAT    EPW28212   1.253   1.658   7.268 -0.1248 -0.2567 -0.3483
 6877WAT      O28213   6.016   6.594   5.591  0.4386 -0.1938  0.1766
 6877WAT     H128214   5.994   6.509   5.597  0.0050 -0.1296 -0.3940
 6877WAT     H228215   6.039   6.615   5.672 -0.9756 -0.4531  0.6720
 6877WAT    EPW28216   6.016   6.584   5.604 -0.1263 -0.5326 -0.5762
 6878WAT      O28217   5.503   3.985   4.615 -0.7673  0.0511  0.3758
 6878WAT     H128218   5.546   3.981   4.691 -1.4094  0.7080  0.7943
 6878WAT     H228219   5.518   4.067   4.587 -0.4589 -0.2136 -0.2550
 6878WAT    EPW28220   5.511   3.997   4.622  0.3970  0.0650  0.0526
 6879WAT      O28221   2.927   7.012   1.273 -0.4467 -0.3659  0.0129
 6879WAT     H128222   2.955   7.029   1.192 -0.7584  0.8597  0.1325
 6879WAT     H228223   2.957   6.932   1.289  0.3646 -0.2871 -0.9904
 6879WAT    EPW28224   2.936   7.003   1.263  0.3695  0.2170  0.2929
 6880WAT      O28225   4.091   0.317   0.332 -0.3995  0.5570  0.0400
 6880WAT     H128226   4.122   0.398   0.325  1.9611 -0.3908 -2.3974
 6880WAT     H228227   4.030   0.313   0.269 -1.2258  0.6797  0.8116
 6880WAT    EPW28228   4.086   0.328   0.321 -0.2808  0.5103 -0.1014
 6881WAT      O28229   4.243   0.457   5.530 -0.0842  0.2430 -0.3918
 6881WAT     H128230   4.312   0.437   5.580  0.0714  0.1655 -0.6357
 6881WAT     H228231   4.279   0.494   5.460 -0.3075  0.4232 -0.4112
 6881WAT    EPW28232   4.258   0.459   5.527 -0.1494  0.4979  0.6575
 6882WAT      O28233   4.461   2.265   1.680 -0.1269  0.0059  0.6436
 6882WAT     H128234   4.455   2.182   1.653  0.2831 -0.2126  1.2006
 6882WAT     H228235   4.378   2.291   1.683 -0.1815  1.0411 -3.7190
 6882WAT    EPW28236   4.448   2.256   1.676 -0.2507 -0.1645  0.2411
 6883WAT      O28237   0.958   1.065   5.339 -0.0484 -0.4427 -0.1993
 6883WAT     H128238   1.022   1.026   5.384  0.3175 -0.0820 -0.4008
 6883WAT     H228239   0.983   1.055   5.256  0.4720  0.8968 -0.2363
 6883WAT    EPW28240   0.971   1.058   5.333  0.1529  0.2577 -0.0810
 6884WAT      O28241   7.082   4.133   1.072  0.6394  0.6936 -0.2374
 6884WAT     H128242   7.162   4.165   1.086  0.7595  0.4876 -0.4515
 6884WAT     H228243   7.032   4.178   1.128  0.6035  2.1612 -1.4001
 6884WAT    EPW28244   7.087   4.144   1.083 -0.5978  0.2987 -0.3574
 6885WAT      O28245   3.442   0.837   2.501 -0.2471  0.2581  0.1533
 6885WAT     H128246   3.466   0.863   2.421 -4.8840 -1.5905 -2.2283
 6885WAT     H228247   3.502   0.778   2.522  1.2267  0.9299 -1.8699
 6885WAT    EPW28248   3.454   0.832   2.492  0.1324 -0.0489  0.2104
 6886WAT      O28249   4.254   3.739   1.209 -0.1021  0.3414  0.2362
 6886WAT     H128250   4.189   3.684   1.230  1.0511 -0.6879  1.2591
 6886WAT     H228251   4.272   3.778   1.285  1.8093 -0.8852  0.4621
 6886WAT    EPW28252   4.247   3.737   1.224 -0.2077 -0.1938  0.2796
 6887WAT      O28253   5.036   7.338   5.778 -0.2018  0.2456 -0.0891
 6887WAT     H128254   5.008   7.313   5.856  0.3395 -0.3248 -0.0718
 6887WAT     H228255   5.113   7.297   5.769  0.0931  0.8849 -0.6035
 6887WAT    EPW28256   5.044   7.328   5.788 -0.0326  0.3803 -0.3158
 6888WAT      O28257   1.792   7.571   6.843  0.1805  0.5760 -0.7384
 6888WAT     H128258   1.817   7.513   6.783  0.7666  0.0688 -0.0291
 6888WAT     H228259   1.761   7.638   6.796  1.0773  0.3971 -1.6071
 6888WAT    EPW28260   1.791   7.572   6.828 -0.3731 -0.2204  0.5306
 6889WAT      O28261   5.734   3.895   4.420  0.8575 -0.1719  0.2997
 6889WAT     H128262   5.675   3.944   4.463  0.1219 -0.3645 -0.4614
 6889WAT     H228263   5.751   3.830   4.476 -0.7900 -0.9370 -0.0412
 6889WAT    EPW28264   5.728   3.893   4.435 -0.1460 -0.2021  0.2516
 6890WAT      O28265   3.104   5.116   7.382  0.1807  0.0973  0.0893
 6890WAT     H128266   3.059   5.191   7.388  1.2615  0.7946 -0.2487
 6890WAT     H228267   3.048   5.062   7.342 -1.0377  0.3524  1.3315
 6890WAT    EPW28268   3.089   5.120   7.377  0.0695 -0.4781 -0.2461
 6891WAT      O28269   5.338   3.933   1.429  0.1598  0.2920 -0.5671
 6891WAT     H128270   5.403   3.895   1.385 -0.1004 -1.3009  0.3124
 6891WAT     H228271   5.268   3.887   1.405 -0.3206  0.7924 -0.1407
 6891WAT    EPW28272   5.337   3.920   1.419  0.7616  0.1541  0.1234
 6892WAT      O28273   2.486   2.874   2.104 -0.2323 -0.5576 -0.2233
 6892WAT     H128274   2.493   2.805   2.156 -1.4762  1.0285  2.2473
 6892WAT     H228275   2.408   2.864   2.066 -2.8506  1.5674  3.8344
 6892WAT    EPW28276   2.476   2.863   2.106  0.6781  0.4191 -0.0800
 6893WAT      O28277   2.896   1.521   6.846 -0.6229  0.2279 -0.1526
 6893WAT     H128278   2.949   1.453   6.831 -0.2139  0.6881 -0.8794
 6893WAT     H228279   2.874   1.513   6.930  0.3784 -0.1253  0.0848
 6893WAT    EPW28280   2.900   1.510   6.856  0.4032 -0.5385  0.4907
 6894WAT      O28281   4.257   4.075   4.990 -0.1050  0.4663  0.3135
 6894WAT     H128282   4.171   4.089   4.981 -0.4088 -1.7799 -0.9416
 6894WAT     H228283   4.274   4.110   5.068 -2.3825  0.1026  1.0760
 6894WAT    EPW28284   4.247   4.082   5.000 -0.4846 -0.4563  0.0594
 6895WAT      O28285   6.022   4.151   3.921  0.1382 -0.2724 -0.7298
 6895WAT     H128286   5.962   4.087   3.915 -0.3939  0.1015  0.2975
 6895WAT     H228287   6.098   4.108   3.920 -0.1983 -0.8890 -0.4683
 6895WAT    EPW28288   6.024   4.135   3.920 -0.7199  0.6407 -0.5054
 6896WAT      O28289   3.661   5.854   6.158 -0.0509  0.1042  0.4315
 6896WAT     H128290   3.671   5.768   6.150 -0.8321 -0.1336  1.8513
 6896WAT     H228291   3.670   5.869   6.243 -1.4976  1.2059  0.4283
 6896WAT    EPW28292   3.664   5.844   6.169  0.0940  0.1008 -0.2357
 6897WAT      O28293   3.800   6.755   7.442 -0.2129 -0.1622  0.7533
 6897WAT     H128294   3.852   6.814   7.405 -0.9325  1.6339  2.4414
 6897WAT     H228295   3.783   6.699   7.377  1.9159  0.4661 -0.4472
 6897WAT    EPW28296   3.805   6.755   7.427  0.6313 -0.0679  0.2470
 6898WAT      O28297   7.445   5.191   5.028  0.4650 -0.2134 -0.4468
 6898WAT     H128298   7.521   5.230   5.010  0.1277  0.9427  0.5195
 6898WAT     H228299   7.397   5.254   5.064 -0.3190 -1.3742  0.6312
 6898WAT    EPW28300   7.449   5.206   5.030 -0.2873  0.0325  0.0025
 6899WAT      O28301   2.809   3.201   0.085 -0.9490  0.4580 -0.2641
 6899WAT     H128302   2.776   3.121   0.095 -1.1516  0.6801  1.0999
 6899WAT     H228303   2.779   3.244   0.155 -0.7108  1.6832 -0.8909
 6899WAT    EPW28304   2.800   3.195   0.097 -0.6192  0.2192 -0.2176
 6900WAT      O28305   0.739   7.567   5.505 -0.1763  0.2617  0.2799
 6900WAT     H128306   0.736   7.580   5.419  0.1850  1.5399  0.4269
 6900WAT     H228307   0.822   7.545   5.520 -0.5646 -1.3419  0.1496
 6900WAT    EPW28308   0.751   7.566   5.494  0.5803 -0.2311  0.1711
 6901WAT      O28309   5.676   6.839   0.488  0.0235  0.0030  0.2606
 6901WAT     H128310   5.668   6.768   0.538 -2.4881 -0.2737 -0.4226
 6901WAT     H228311   5.601   6.842   0.444  0.1913  2.8843 -0.0233
 6901WAT    EPW28312   5.664   6.829   0.489 -0.4780 -0.0538 -0.5861
 6902WAT      O28313   5.202   0.816   0.415 -0.1203 -0.2347 -0.0456
 6902WAT     H128314   5.237   0.793   0.339  1.8737  0.0107  0.7457
 6902WAT     H228315   5.265   0.799   0.473 -1.1464  0.6985  1.4099
 6902WAT    EPW28316   5.216   0.810   0.412  0.0837 -0.2317 -0.7970
 6903WAT      O28317   7.015   1.280   5.043  0.2896  0.6316 -0.3414
 6903WAT     H128318   6.969   1.240   4.980  0.4619  0.0609 -0.1103
 6903WAT     H228319   7.095   1.284   5.011  0.2626  0.8355 -0.3835
 6903WAT    EPW28320   7.020   1.274   5.029 -0.4156  0.1778  0.0675
 6904WAT      O28321   5.440   6.298   2.548 -0.4848 -0.0227 -0.0089
 6904WAT     H128322   5.401   6.223   2.569 -0.2711 -0.4823 -1.1549
 6904WAT     H228323   5.483   6.321   2.621  1.5581 -2.3695 -0.3439
 6904WAT    EPW28324   5.441   6.291   2.562 -0.6214  0.6605  0.1425
 6905WAT      O28325   1.694   3.865   4.226  0.3220  0.3465  0.2960
 6905WAT     H128326   1.757   3.884   4.283  0.2306 -0.2924  0.6216
 6905WAT     H228327   1.661   3.789   4.256  1.3614 -0.8833 -1.4776
 6905WAT    EPW28328   1.698   3.856   4.239  0.5334  0.1006 -0.1814
 6906WAT      O28329   6.596   1.830   3.754 -0.0499 -0.0697 -0.3831
 6906WAT     H128330   6.672   1.860   3.725 -1.0297  1.4070 -1.6130
 6906WAT     H228331   6.565   1.784   3.687 -0.5375 -0.0673 -0.1683
 6906WAT    EPW28332   6.602   1.828   3.740  0.3039  0.0154  0.0472
 6907WAT      O28333   2.356   5.130   3.040 -0.9319  0.1112 -0.0996
 6907WAT     H128334   2.382   5.190   3.097 -0.0510 -0.8383  0.5429
 6907WAT     H228335   2.419   5.132   2.979  0.8909 -2.2159  1.4733
 6907WAT    EPW28336   2.369   5.139   3.039  0.0430  0.2289 -0.1648
 6908WAT      O28337   3.258   3.631   6.112  0.5728  0.2697 -0.0870
 6908WAT     H128338   3.291   3.550   6.115  0.4920  0.2607  2.0866
 6908WAT     H228339   3.307   3.671   6.052 -0.4719 -1.7894 -2.5237
 6908WAT    EPW28340   3.270   3.625   6.104  0.3635  0.0957  0.1270
 6909WAT      O28341   3.024   7.552   0.615 -0.6874  0.0469 -0.2582
 6909WAT     H128342   3.106   7.542   0.588 -1.0405  0.5872 -1.6071
 6909WAT     H228343   2.981   7.577   0.543 -2.0450 -0.2690  0.4043
 6909WAT    EPW28344   3.030   7.554   0.600 -0.0165  0.2447  0.3057
 6910WAT      O28345   4.990   6.704   7.181 -0.1313 -0.2434  0.6138
 6910WAT     H128346   4.957   6.632   7.218  0.9914 -0.4943  1.1765
 6910WAT     H228347   5.068   6.712   7.218 -0.7418  2.0494  1.6050
 6910WAT    EPW28348   4.997   6.695   7.192  0.0586  0.2101 -0.1632
 6911WAT      O28349   0.071   1.568   5.301  0.1955 -0.5810 -0.3583
 6911WAT     H128350   0.150   1.537   5.319  0.4742 -0.6508 -1.6359
 6911WAT     H228351   0.025   1.497   5.280 -0.1167 -0.5051  0.0634
 6911WAT    EPW28352   0.076   1.553   5.301 -0.7820  0.2370  0.3567
 6912WAT      O28353   1.013   0.576   1.088 -0.4607 -0.0370  0.2834
 6912WAT     H128354   0.979   0.496   1.095 -2.4010  0.7018 -0.0460
 6912WAT     H228355   1.074   0.578   1.151 -0.7934 -1.5488  0.6869
 6912WAT    EPW28356   1.017   0.565   1.098  0.0308  0.0301  0.5178
 6913WAT      O28357   0.666   6.877   6.636 -0.3446 -0.6320  0.1402
 6913WAT     H128358   0.593   6.860   6.680 -0.4465  0.5382  0.4656
 6913WAT     H228359   0.665   6.819   6.570 -1.0383 -1.2871  0.7152
 6913WAT    EPW28360   0.655   6.866   6.633  0.5090 -0.1804  0.1732
 6914WAT      O28361   4.864   7.180   6.948  0.1484 -0.5560 -0.2309
 6914WAT     H128362   4.781   7.163   6.927  0.1973 -1.0344 -0.0536
 6914WAT     H228363   4.859   7.252   6.997  0.2037  1.9328 -3.5702
 6914WAT    EPW28364   4.851   7.188   6.952  0.0347  0.1378  0.1624
 6915WAT      O28365   2.708   4.131   5.068  0.3384  0.3664  0.1015
 6915WAT     H128366   2.781   4.173   5.090  1.2458 -0.8321 -0.4983
 6915WAT     H228367   2.680   4.175   4.998  0.5751  0.7432  0.2379
 6915WAT    EPW28368   2.715   4.143   5.061  0.0111  0.7975  0.0576
 6916WAT      O28369   5.689   2.907   7.443 -0.7719 -0.2650 -0.0178
 6916WAT     H128370   5.767   2.940   7.421 -1.4540  1.6770  0.2970
 6916WAT     H228371   5.704   2.821   7.448  1.1852 -0.0053 -0.5926
 6916WAT    EPW28372   5.703   2.899   7.441  0.3017 -0.2252 -0.1307
 6917WAT      O28373   4.797   3.966   4.073 -0.3014  0.1944  0.0354
 6917WAT     H128374   4.873   3.986   4.112  0.2101 -3.4339  1.2666
 6917WAT     H228375   4.737   3.990   4.131  0.1764 -0.4399  0.8142
 6917WAT    EPW28376   4.799   3.973   4.087 -0.1238  0.8874 -0.2963
 6918WAT      O28377   1.271   5.972   5.233 -0.1959 -0.2256  0.1674
 6918WAT     H128378   1.276   5.963   5.320 -0.8115 -1.0686  0.1236
 6918WAT     H228379   1.208   5.917   5.210 -1.4130  1.4153 -0.6036
 6918WAT    EPW28380   1.263   5.963   5.243  0.0194  0.1406 -0.3576
 6919WAT      O28381   6.678   3.051   4.241 -0.2395  0.4470 -0.2411
 6919WAT     H128382   6.760   3.057   4.212 -0.3631 -0.9413 -1.0052
 6919WAT     H228383   6.644   2.987   4.192 -1.7394  0.8912  0.1586
 6919WAT    EPW28384   6.685   3.042   4.229 -0.5596 -0.0995  0.4723
 6920WAT      O28385   5.251   1.267   2.910  0.3092 -0.0568  0.1597
 6920WAT     H128386   5.229   1.197   2.957  1.0646 -0.5766 -0.2447
 6920WAT     H228387   5.313   1.306   2.958  0.0123  0.2574  0.3009
 6920WAT    EPW28388   5.257   1.263   2.924 -0.1948 -0.5875 -0.2831
 6921WAT      O28389   5.468   6.807   3.137  0.3250  0.2297  0.6299
 6921WAT     H128390   5.512   6.857   3.080  0.0541 -0.3435 -0.1011
 6921WAT     H228391   5.529   6.755   3.170  0.7172  1.3864  1.8125
 6921WAT    EPW28392   5.483   6.807   3.133 -0.3706 -0.2156  0.1139
 6922WAT      O28393   0.485   7.543   3.351  0.2837  0.1724  0.6202
 6922WAT     H128394   0.499   7.457   3.339  1.4916  0.4398 -0.0635
 6922WAT     H228395   0.566   7.576   3.360 -0.1308  1.3187  0.2889
 6922WAT    EPW28396   0.499   7.535   3.351  0.2327 -0.3238  0.0828
 6923WAT      O28397   0.507   3.732   7.490  0.4783 -0.6864  0.2982
 6923WAT     H128398   0.530   3.650   7.506  0.8255 -0.4470  1.0306
 6923WAT     H228399   0.516   3.772   7.567  0.9611  0.1919 -0.1964
 6923WAT    EPW28400   0.511   3.726   7.503 -0.2255 -0.3350  0.1198
 6924WAT      O28401   1.490   3.111   2.429  0.1651  0.3803  0.7637
 6924WAT     H128402   1.444   3.158   2.372  0.4706 -0.4780 -0.2288
 6924WAT     H228403   1.440   3.111   2.500 -0.7875  0.5132  0.1178
 6924WAT    EPW28404   1.476   3.118   2.431 -0.0763  0.8963  0.1053
 6925WAT      O28405   5.686   1.298   2.953  0.0612 -0.2108 -0.1538
 6925WAT     H128406   5.736   1.325   3.019  1.0825  0.9056 -1.3296
 6925WAT     H228407   5.706   1.213   2.946  1.8570  0.2074 -0.6104
 6925WAT    EPW28408   5.697   1.289   2.962  0.4371 -0.0354 -0.2313
 6926WAT      O28409   3.929   4.102   5.320 -0.6166 -0.0711 -0.2113
 6926WAT     H128410   3.905   4.174   5.278 -2.8017 -0.6022 -0.0188
 6926WAT     H228411   3.932   4.042   5.256  1.1525  0.1479 -0.3653
 6926WAT    EPW28412   3.926   4.104   5.304  0.1480 -0.4295 -0.4010
 6927WAT      O28413   2.043   1.806   1.376 -0.3698 -0.3160 -0.0015
 6927WAT     H128414   2.040   1.888   1.345 -0.2071 -0.3330 -0.0665
 6927WAT     H228415   2.063   1.816   1.460 -0.1285 -0.2978 -0.0607
 6927WAT    EPW28416   2.046   1.820   1.384  0.0324  0.3775  0.4222
 6928WAT      O28417   4.479   3.613   0.359  0.4410  0.4950 -0.4968
 6928WAT     H128418   4.415   3.671   0.370  0.9332  0.7440  1.5713
 6928WAT     H228419   4.529   3.648   0.297  0.6750  2.3154  0.6403
 6928WAT    EPW28420   4.477   3.627   0.352 -0.0006  0.0399  0.6369
 6929WAT      O28421   4.397   4.963   4.238 -0.5039  0.2398  0.2160
 6929WAT     H128422   4.331   4.950   4.182 -0.0058 -1.1682 -0.0622
 6929WAT     H228423   4.375   4.914   4.307  0.5565 -0.7984 -0.1506
 6929WAT    EPW28424   4.384   4.954   4.240 -0.3053 -0.7815 -0.2304
 6930WAT      O28425   5.159   2.635   4.796  0.2426 -0.5434 -0.8168
 6930WAT     H128426   5.072   2.632   4.790 -0.3337 -0.2037  3.6122
 6930WAT     H228427   5.176   2.721   4.793  0.1459 -0.4834  0.0504
 6930WAT    EPW28428   5.148   2.647   4.795  0.1456  0.1889 -0.6392
 6931WAT      O28429   1.665   4.425   6.349  0.1433  0.1877 -0.0971
 6931WAT     H128430   1.667   4.425   6.436  4.0248  1.4307  0.0149
 6931WAT     H228431   1.625   4.500   6.330 -2.3984 -0.9152  0.4209
 6931WAT    EPW28432   1.660   4.436   6.359  0.2364 -0.2586  0.3874
 6932WAT      O28433   2.944   0.787   5.707 -0.2544  0.5205 -0.0192
 6932WAT     H128434   2.879   0.844   5.695 -1.7065 -1.0064  0.1790
 6932WAT     H228435   2.951   0.748   5.629  0.2228  0.4528  0.0543
 6932WAT    EPW28436   2.936   0.789   5.694 -0.5105 -0.0467  0.2874
 6933WAT      O28437   0.409   2.011   4.372 -0.4795  0.3253 -0.0399
 6933WAT     H128438   0.463   2.057   4.320  1.5434 -0.7956  0.9354
 6933WAT     H228439   0.457   1.999   4.444 -1.5447 -1.8932  0.3670
 6933WAT    EPW28440   0.424   2.016   4.375 -0.0824 -0.2984 -0.0393
 6934WAT      O28441   3.757   3.837   4.745  0.1712  0.2878  0.0031
 6934WAT     H128442   3.727   3.795   4.815 -0.3932  0.5665 -0.0637
 6934WAT     H228443   3.710   3.911   4.743 -1.9289 -0.9567 -2.2880
 6934WAT    EPW28444   3.746   3.842   4.755  0.5362 -0.2700  0.5278
 6935WAT      O28445   2.163   4.594   2.073 -0.5666 -0.5408  0.1849
 6935WAT     H128446   2.115   4.568   2.140 -1.4398 -0.7864 -0.5151
 6935WAT     H228447   2.237   4.621   2.110 -1.1533 -0.3595  1.2680
 6935WAT    EPW28448   2.167   4.594   2.088 -0.2152  0.1622 -0.0475
 6936WAT      O28449   1.447   6.766   3.561  0.3275 -0.4207 -0.0223
 6936WAT     H128450   1.529   6.768   3.591 -0.1718 -0.8340  1.4108
 6936WAT     H228451   1.409   6.703   3.607 -1.3057  0.9797  0.6459
 6936WAT    EPW28452   1.454   6.757   3.572  0.5007  0.4121 -0.1896
 6937WAT      O28453   3.726   6.616   5.891  0.2944 -0.4296 -0.5046
 6937WAT     H128454   3.759   6.688   5.854 -0.5444  0.0440 -0.3552
 6937WAT     H228455   3.767   6.612   5.968 -0.6182  0.6478  0.0581
 6937WAT    EPW28456   3.737   6.627   5.897 -0.0633 -1.1865  0.5817
 6938WAT      O28457   2.096   5.413   3.657 -0.1728 -0.6104 -0.1491
 6938WAT     H128458   2.089   5.481   3.604  0.5015  0.0063  0.5122
 6938WAT     H228459   2.137   5.446   3.727  0.8401 -1.8453 -0.1163
 6938WAT    EPW28460   2.101   5.428   3.660 -0.2696  0.5140  0.1060
 6939WAT      O28461   4.008   6.608   5.757 -0.4411  0.1974 -0.3310
 6939WAT     H128462   4.052   6.604   5.682 -0.2820  1.8868 -0.3635
 6939WAT     H228463   4.065   6.645   5.812 -1.0812  0.4159  0.1955
 6939WAT    EPW28464   4.023   6.613   5.754 -0.0742  0.0276  0.0588
 6940WAT      O28465   3.606   3.690   4.541 -0.2215 -0.3162  0.0760
 6940WAT     H128466   3.674   3.731   4.576  0.7421  0.3997 -2.4340
 6940WAT     H228467   3.538   3.716   4.590  0.9557  0.9195  1.1092
 6940WAT    EPW28468   3.606   3.700   4.554 -0.3701 -0.0231 -0.4400
 6941WAT      O28469   3.772   0.597   5.051 -0.0059 -0.0634 -0.5199
 6941WAT     H128470   3.721   0.589   4.980 -2.1988 -1.4215  1.0807
 6941WAT     H228471   3.787   0.515   5.075 -0.4113  0.3456  1.2821
 6941WAT    EPW28472   3.766   0.584   5.044  0.3740  0.0279 -0.4557
 6942WAT      O28473   4.555   0.361   3.742  0.5685 -0.4620  0.9691
 6942WAT     H128474   4.580   0.351   3.825 -0.0305  0.7568  1.3173
 6942WAT     H228475   4.494   0.423   3.746  0.8407 -0.0648 -0.4377
 6942WAT    EPW28476   4.550   0.369   3.755  0.3551  0.4448 -0.2235
 6943WAT      O28477   4.961   1.750   4.052 -0.5445  0.4881 -0.9552
 6943WAT     H128478   4.967   1.698   4.121  3.1980  2.0272  0.1140
 6943WAT     H228479   4.878   1.740   4.026 -1.6285 -1.5033  2.6174
 6943WAT    EPW28480   4.949   1.741   4.058  0.0056  0.3022  0.3002
 6944WAT      O28481   1.614   4.550   5.939  0.1866 -0.4859 -0.0880
 6944WAT     H128482   1.583   4.469   5.949  0.7677 -0.4678  2.7110
 6944WAT     H228483   1.658   4.547   5.864  0.1849 -2.7632 -0.0528
 6944WAT    EPW28484   1.616   4.538   5.929 -0.2849  0.2116 -0.3496
 6945WAT      O28485   5.285   3.588   5.497  0.0597  0.6724 -0.0626
 6945WAT     H128486   5.330   3.660   5.517 -0.4024  0.8634  0.3021
 6945WAT     H228487   5.242   3.569   5.570  0.7965 -0.4412  0.1016
 6945WAT    EPW28488   5.285   3.595   5.510  0.2783 -0.2066  0.2240
 6946WAT      O28489   4.354   0.217   2.131 -0.1323 -0.1887  0.2722
 6946WAT     H128490   4.441   0.227   2.132 -0.2335  0.8645  0.0213
 6946WAT     H228491   4.342   0.153   2.073  0.4898 -0.4742  0.4499
 6946WAT    EPW28492   4.365   0.209   2.122 -0.4197  0.6579 -0.2764
 6947WAT      O28493   2.937   3.305   7.460  0.0892  0.3284  0.3084
 6947WAT     H128494   3.003   3.249   7.461 -0.7453 -0.6919  0.4675
 6947WAT     H228495   2.900   3.294   7.538 -0.8599  0.1485 -0.1536
 6947WAT    EPW28496   2.941   3.295   7.472  0.7802 -0.2214  0.1670
 6948WAT      O28497   4.670   4.372   4.448  0.1167 -0.3406  0.1717
 6948WAT     H128498   4.678   4.290   4.479  1.2904  0.0871  1.0654
 6948WAT     H228499   4.584   4.381   4.438 -0.1970 -1.0652  1.8383
 6948WAT    EPW28500   4.658   4.361   4.452 -0.0866 -0.2449 -0.2945
 6949WAT      O28501   6.727   0.419   2.663  0.0162 -0.5253  0.2016
 6949WAT     H128502   6.670   0.361   2.630  1.3986 -3.3144  2.2545
 6949WAT     H228503   6.697   0.432   2.744 -0.2851  1.8613 -0.2110
 6949WAT    EPW28504   6.714   0.412   2.670 -0.2774  0.8905  0.2062
 6950WAT      O28505   4.441   0.604   4.870 -0.3842  0.9008 -0.3801
 6950WAT     H128506   4.475   0.679   4.839 -1.5294  1.2184 -0.9170
 6950WAT     H228507   4.512   0.556   4.888  0.3696  1.9848 -0.3284
 6950WAT    EPW28508   4.457   0.608   4.868  0.2963  0.6593  0.1939
 6951WAT      O28509   6.008   0.395   7.223  0.9483  0.2067  0.0186
 6951WAT     H128510   5.922   0.406   7.211  1.0631 -0.7214 -2.2841
 6951WAT     H228511   6.043   0.467   7.189  1.0948  0.4456  0.6724
 6951WAT    EPW28512   6.001   0.407   7.216 -0.0672 -0.4273  0.0430
 6952WAT      O28513   7.588   7.292   2.154 -0.1162 -0.4487 -0.6008
 6952WAT     H128514   7.624   7.352   2.207  0.0508 -0.9781 -0.1056
 6952WAT     H228515   7.502   7.302   2.168 -0.0435 -1.6418  0.9923
 6952WAT    EPW28516   7.581   7.302   2.164  0.2822 -0.2148 -0.2597
 6953WAT      O28517   6.523   1.861   7.014 -0.0785  0.7657 -0.4224
 6953WAT     H128518   6.509   1.942   7.043 -0.8923  1.5661 -2.7667
 6953WAT     H228519   6.495   1.864   6.931 -0.9657 -2.1592 -0.3627
 6953WAT    EPW28520   6.517   1.873   7.006  0.5402 -0.4266 -0.3295
 6954WAT      O28521   3.428   0.052   5.563 -0.3654 -0.0676 -0.2198
 6954WAT     H128522   3.369   0.046   5.499  1.2966 -0.1145 -1.8291
 6954WAT     H228523   3.496   0.091   5.525  0.6109  0.1301  1.5981
 6954WAT    EPW28524   3.429   0.057   5.548  0.3495  0.1407 -0.2617
 6955WAT      O28525   5.661   3.909   5.615  0.7593  0.0008  0.8558
 6955WAT     H128526   5.724   3.856   5.588  1.3300  1.0958 -0.0155
 6955WAT     H228527   5.672   3.911   5.702  0.1148 -2.0126  1.0412
 6955WAT    EPW28528   5.672   3.901   5.624  0.1324  0.2377  0.2532
 6956WAT      O28529   1.842   0.710   3.444  0.4943  0.3856  0.1126
 6956WAT     H128530   1.919   0.672   3.425 -0.0198 -0.4065 -0.4659
 6956WAT     H228531   1.865   0.787   3.477  1.5416  0.1779 -0.0825
 6956WAT    EPW28532   1.857   0.716   3.446 -0.0672  0.3018  0.2268
 6957WAT      O28533   3.450   4.242   0.848 -0.6499  0.7830 -0.3031
 6957WAT     H128534   3.446   4.329   0.848  0.6273  0.8814  1.1146
 6957WAT     H228535   3.512   4.224   0.907 -0.9211 -1.0940 -0.5237
 6957WAT    EPW28536   3.459   4.253   0.857  1.0446  0.0508  0.2527
 6958WAT      O28537   4.866   5.244   3.609 -0.1557  0.1541  0.1082
 6958WAT     H128538   4.836   5.176   3.655 -2.3847  0.3931 -0.8540
 6958WAT     H228539   4.833   5.313   3.652  1.9647  0.7041  0.9947
 6958WAT    EPW28540   4.857   5.244   3.622  0.0509  0.4214  0.3143
 6959WAT      O28541   4.894   1.908   5.864  0.0832  0.0014  0.2047
 6959WAT     H128542   4.963   1.955   5.838 -0.0626 -0.2186 -0.6076
 6959WAT     H228543   4.904   1.832   5.823 -0.2993 -0.2681  0.6007
 6959WAT    EPW28544   4.905   1.904   5.854  0.0510 -0.1012  0.2422
 6960WAT      O28545   4.003   5.373   1.335 -0.2906 -0.3164  0.0776
 6960WAT     H128546   3.938   5.383   1.393 -1.4426 -0.4833 -1.1286
 6960WAT     H228547   4.073   5.403   1.377 -0.5794 -2.6104  2.4384
 6960WAT    EPW28548   4.003   5.379   1.350  0.5678  0.4208  0.4241
 6961WAT      O28549   3.562   6.030   0.871 -0.2202  0.1998  0.7704
 6961WAT     H128550   3.634   5.985   0.853 -1.2961 -2.1620  1.9799
 6961WAT     H228551   3.578   6.062   0.951  0.3488  1.6553  0.1085
 6961WAT    EPW28552   3.575   6.028   0.880 -0.0545 -0.1794 -0.3151
 6962WAT      O28553   0.014   5.406   7.101  0.1987 -0.2472 -0.0920
 6962WAT     H128554   0.082   5.378   7.055  0.6660  1.4486 -0.5014
 6962WAT     H228555  -0.023   5.466   7.050 -0.1118  0.6610  1.1383
 6962WAT    EPW28556   0.018   5.411   7.087  0.3069  0.4287  0.2037
 6963WAT      O28557   6.807   3.837   3.945  0.1225 -0.5730 -0.1213
 6963WAT     H128558   6.833   3.851   4.027 -0.8547  0.3611  0.0525
 6963WAT     H228559   6.836   3.908   3.902 -1.0660 -0.0959 -0.1609
 6963WAT    EPW28560   6.815   3.850   3.950  0.5154 -0.0442  0.6075
 6964WAT      O28561   2.355   2.878   0.659  0.2200 -0.1180 -0.2147
 6964WAT     H128562   2.368   2.877   0.572 -0.7531  0.5556 -0.3882
 6964WAT     H228563   2.272   2.903   0.666  0.1872 -0.5267  0.9123
 6964WAT    EPW28564   2.345   2.882   0.647  0.3099 -0.3733 -0.4849
 6965WAT      O28565   2.304   0.781   5.258  0.1079 -0.0150 -0.6440
 6965WAT     H128566   2.389   0.792   5.271 -0.2810  0.8102  1.6462
 6965WAT     H228567   2.278   0.735   5.328 -1.9758  3.4008  1.1102
 6965WAT    EPW28568   2.313   0.776   5.271  0.1572 -0.0783 -0.0197
 6966WAT      O28569   2.218   5.083   5.567  0.1685 -0.1438 -0.2506
 6966WAT     H128570   2.298   5.110   5.592  1.1729 -1.1839 -2.1308
 6966WAT     H228571   2.197   5.140   5.504 -1.2086  0.9047  1.0733
 6966WAT    EPW28572   2.227   5.096   5.561 -0.6140 -0.2930  0.2054
 6967WAT      O28573   4.455   6.795   4.713 -0.4114  0.3270 -0.7403
 6967WAT     H128574   4.512   6.829   4.771  1.6088 -1.3888 -1.6048
 6967WAT     H228575   4.419   6.728   4.756  0.3399 -0.3194 -1.0916
 6967WAT    EPW28576   4.458   6.790   4.728 -0.4836 -0.1194 -0.3100
 6968WAT      O28577   0.234   5.291   6.947  0.0522  0.6878  0.0037
 6968WAT     H128578   0.279   5.324   6.880  0.8936  0.7398  0.5695
 6968WAT     H228579   0.287   5.230   6.979  0.0899  1.3035  1.1833
 6968WAT    EPW28580   0.249   5.287   6.942 -1.2820 -0.1385  0.4558
 6969WAT      O28581   6.374   6.778   1.951  0.8866 -0.0389 -0.1049
 6969WAT     H128582   6.320   6.847   1.958  2.1437  1.0206 -0.5150
 6969WAT     H228583   6.446   6.811   1.915  0.8125 -1.9693 -2.2813
 6969WAT    EPW28584   6.376   6.793   1.946 -0.1813 -0.1340 -0.0525
 6970WAT      O28585   2.683   4.386   6.452  0.2211 -0.2690  0.3672
 6970WAT     H128586   2.743   4.436   6.413  1.2818 -0.4285  1.7142
 6970WAT     H228587   2.670   4.425   6.529 -1.1123 -0.4787  0.2791
 6970WAT    EPW28588   2.690   4.399   6.457 -0.7604 -0.2151 -0.2350
 6971WAT      O28589   4.499   2.189   6.460 -0.3702  0.3413 -0.2654
 6971WAT     H128590   4.540   2.196   6.384 -0.0774 -0.0465 -0.1501
 6971WAT     H228591   4.420   2.159   6.439 -1.5767  3.5522 -0.7412
 6971WAT    EPW28592   4.493   2.185   6.446  0.0602  0.7776 -0.6452
 6972WAT      O28593   4.937   3.976   3.520  0.4241 -0.3273  0.0688
 6972WAT     H128594   4.998   3.980   3.458  2.1745 -2.0659  1.5231
 6972WAT     H228595   4.961   4.038   3.577 -0.3475  0.3158 -0.2959
 6972WAT    EPW28596   4.950   3.985   3.520 -0.1992 -0.0246 -0.2367
 6973WAT      O28597   5.204   5.690   7.525 -0.3941 -0.3471 -0.4263
 6973WAT     H128598   5.143   5.709   7.466 -0.2064 -2.1634 -1.2797
 6973WAT     H228599   5.228   5.768   7.556 -1.6980  0.5342 -1.5329
 6973WAT    EPW28600   5.198   5.705   7.521 -0.5002 -0.2446  0.5432
 6974WAT      O28601   5.607   1.240   1.310  0.0409 -0.2073  0.1174
 6974WAT     H128602   5.610   1.152   1.308  0.1182 -0.2132  0.4084
 6974WAT     H228603   5.691   1.263   1.315  0.0957 -0.0762 -1.0823
 6974WAT    EPW28604   5.620   1.230   1.310  0.0806 -0.4711 -0.5305
 6975WAT      O28605   5.614   1.057   4.092  0.0057 -0.4856 -0.1911
 6975WAT     H128606   5.576   1.037   4.168 -0.5685  1.2723  0.0207
 6975WAT     H228607   5.591   1.140   4.078  0.1142 -0.7514 -2.2890
 6975WAT    EPW28608   5.605   1.066   4.101 -0.1664 -0.5480 -0.8309
 6976WAT      O28609   4.208   0.541   0.811 -0.2832 -0.5804  0.2644
 6976WAT     H128610   4.229   0.460   0.838 -1.7158 -2.0260 -2.5174
 6976WAT     H228611   4.249   0.549   0.735 -0.5146  1.1809  0.2869
 6976WAT    EPW28612   4.217   0.530   0.804 -0.0564 -0.0298 -0.4143
 6977WAT      O28613   7.561   4.855   4.869  0.0985  0.0137  0.3303
 6977WAT     H128614   7.578   4.928   4.824  0.4642 -0.8184 -0.9111
 6977WAT     H228615   7.513   4.807   4.814  0.6586 -1.0824  0.7722
 6977WAT    EPW28616   7.556   4.859   4.855  0.3319 -0.0828  0.5129
 6978WAT      O28617   1.187  -0.017   4.989  0.3299 -0.0664  0.5209
 6978WAT     H128618   1.147   0.003   4.914 -0.8220  0.6975  1.3000
 6978WAT     H228619   1.243   0.050   5.000  1.9977 -1.1783 -0.6132
 6978WAT    EPW28620   1.189  -0.004   4.979 -0.5500  0.2991 -0.6585
 6979WAT      O28621   2.463   5.166   6.789  0.6717 -0.0961 -0.3574
 6979WAT     H128622   2.471   5.250   6.810  0.2186 -0.5403  1.8961
 6979WAT     H228623   2.526   5.152   6.731  0.1501  1.9832 -1.5174
 6979WAT    EPW28624   2.473   5.176   6.783  0.2529 -0.1155 -0.7957
 6980WAT      O28625   6.521   7.391   4.730 -0.2398 -0.3906 -0.6029
 6980WAT     H128626   6.461   7.327   4.724  0.1137 -0.6801 -1.0813
 6980WAT     H228627   6.557   7.378   4.809  0.2638 -1.1749 -0.9528
 6980WAT    EPW28628   6.517   7.380   4.741  0.9036 -0.3488  0.2076
 6981WAT      O28629   1.856   4.149   2.876  0.3881  0.3898  0.0371
 6981WAT     H128630   1.881   4.207   2.937 -0.7629 -0.6981  1.6192
 6981WAT     H228631   1.897   4.177   2.804 -0.7115  3.6290  0.4734
 6981WAT    EPW28632   1.866   4.162   2.875  0.1101 -0.1140  0.5613
 6982WAT      O28633   4.089   0.560   5.132  0.3458  0.7805  0.5025
 6982WAT     H128634   4.043   0.629   5.105 -2.5367 -0.8039  0.9125
 6982WAT     H228635   4.103   0.515   5.058 -2.1090 -0.4940  0.6963
 6982WAT    EPW28636   4.084   0.564   5.117  0.6510 -0.6416  0.1438
 6983WAT      O28637   5.740   3.083   7.169 -0.4890 -0.4261  0.9113
 6983WAT     H128638   5.826   3.090   7.161 -0.3460  0.1929  2.5077
 6983WAT     H228639   5.724   2.998   7.157  0.0573 -0.2421 -1.4266
 6983WAT    EPW28640   5.750   3.072   7.166  0.4283  0.1493 -0.0538
 6984WAT      O28641   1.496   1.723   3.981  0.1759 -0.1448  0.2922
 6984WAT     H128642   1.433   1.705   3.923  2.5345 -1.1728 -2.1860
 6984WAT     H228643   1.480   1.667   4.045 -1.7344  0.0410  0.0575
 6984WAT    EPW28644   1.484   1.712   3.982  0.0070  0.3312  0.5221
 6985WAT      O28645   3.140   5.162   5.354 -0.5433 -0.0406  0.2799
 6985WAT     H128646   3.155   5.127   5.275  0.3934  0.9202  0.0120
 6985WAT     H228647   3.201   5.126   5.404  0.2261  0.9503  0.0733
 6985WAT    EPW28648   3.151   5.152   5.350  0.0367  0.0680 -0.2098
 6986WAT      O28649   2.106   7.601   1.157 -0.0692  0.6021 -0.6292
 6986WAT     H128650   2.184   7.631   1.184 -0.0901 -0.7357  1.0814
 6986WAT     H228651   2.114   7.514   1.163 -1.4573  0.4082 -1.1721
 6986WAT    EPW28652   2.119   7.593   1.162  0.5317  0.5319  0.5339
 6987WAT      O28653   3.139   7.376   5.936 -0.5009  0.2164  0.2706
 6987WAT     H128654   3.067   7.334   5.911 -1.7609  2.0336  0.6756
 6987WAT     H228655   3.196   7.311   5.952 -1.6772 -1.2325 -1.0457
 6987WAT    EPW28656   3.137   7.360   5.934 -0.1905 -0.0933 -0.5143
 6988WAT      O28657   4.723   1.622   6.700  0.7391  0.0484 -0.1627
 6988WAT     H128658   4.693   1.541   6.684  0.5993 -0.1752  1.0798
 6988WAT     H228659   4.753   1.616   6.782  0.0876  1.4366  0.1984
 6988WAT    EPW28660   4.723   1.609   6.710 -0.3287 -0.0111  0.3977
 6989WAT      O28661   2.819   4.716   5.128 -0.5680  0.0006  0.1868
 6989WAT     H128662   2.881   4.746   5.181  0.1722  0.6536 -0.9894
 6989WAT     H228663   2.831   4.630   5.130 -0.0825  0.0700  0.5449
 6989WAT    EPW28664   2.830   4.708   5.136  0.3494 -0.1043  0.2399
 6990WAT      O28665   2.135   4.777   1.131 -0.2940  0.0582  0.4550
 6990WAT     H128666   2.195   4.835   1.106  0.0390  0.6472  2.4366
 6990WAT     H228667   2.081   4.773   1.062  0.3943  1.7398 -0.2509
 6990WAT    EPW28668   2.136   4.785   1.117  0.2288  0.1742 -1.0619
 6991WAT      O28669   3.225   5.146   6.365 -0.6387 -0.2180  0.6303
 6991WAT     H128670   3.199   5.062   6.374  0.8482 -0.6095  1.6810
 6991WAT     H228671   3.244   5.153   6.281  2.2683 -1.9593  1.0146
 6991WAT    EPW28672   3.224   5.134   6.354 -0.3997 -0.3672 -0.5695
 6992WAT      O28673   4.496   6.960   3.397  0.0820  0.3640  0.1411
 6992WAT     H128674   4.520   6.971   3.480  2.0342  0.5354 -0.3838
 6992WAT     H228675   4.571   6.968   3.353 -0.8035 -0.2852 -1.5956
 6992WAT    EPW28676   4.511   6.963   3.403  0.1504  0.1281 -0.0739
 6993WAT      O28677   1.765   1.246   0.827  0.2534  0.5680 -0.2073
 6993WAT     H128678   1.689   1.282   0.851 -0.0299  0.6554 -1.1918
 6993WAT     H228679   1.822   1.312   0.834 -0.3121  1.3662 -2.2751
 6993WAT    EPW28680   1.762   1.261   0.832 -0.0398  0.6963  0.6213
 6994WAT      O28681   1.348   2.094   1.651  0.3940  0.0292 -0.9454
 6994WAT     H128682   1.346   2.013   1.683 -0.2237  0.5662  0.4279
 6994WAT     H228683   1.264   2.117   1.646  0.6025  1.2240  0.4130
 6994WAT    EPW28684   1.335   2.086   1.655  0.0569  0.1333 -0.4140
 6995WAT      O28685   7.189   4.335   0.216  0.2846 -0.0105  0.1922
 6995WAT     H128686   7.252   4.285   0.250 -0.2133 -2.1023 -1.6915
 6995WAT     H228687   7.145   4.363   0.285  0.6149 -2.2471  1.3964
 6995WAT    EPW28688   7.191   4.332   0.231 -0.3643 -0.3701  0.3586
 6996WAT      O28689   1.218   2.178   3.908  0.2629 -0.5240  0.0921
 6996WAT     H128690   1.171   2.169   3.835 -0.5612 -1.7437  0.7343
 6996WAT     H228691   1.159   2.203   3.967  1.0034  0.8830  0.2640
 6996WAT    EPW28692   1.202   2.180   3.906 -0.4279  0.0150  0.1638
 6997WAT      O28693   1.623   6.316   5.054  0.4662  0.2292  0.0853
 6997WAT     H128694   1.580   6.305   4.979  0.2144  1.2862  0.0575
 6997WAT     H228695   1.621   6.237   5.091 -1.6945  0.2765  0.1884
 6997WAT    EPW28696   1.616   6.303   5.048 -0.6749  0.3601 -0.4952
 6998WAT      O28697   0.011   4.429   0.730  0.4653 -0.0042  0.1173
 6998WAT     H128698   0.026   4.347   0.704  0.2363  0.6071 -2.0918
 6998WAT     H228699   0.088   4.467   0.723  0.2017  0.4074 -0.6403
 6998WAT    EPW28700   0.024   4.422   0.725  0.1575  0.4652 -0.0048
 6999WAT      O28701   4.637   4.376   6.613 -0.1821  0.3960 -0.0613
 6999WAT     H128702   4.699   4.419   6.570  0.4461  1.4877  1.8814
 6999WAT     H228703   4.675   4.301   6.635 -1.2377 -1.3436 -3.3292
 6999WAT    EPW28704   4.652   4.371   6.610 -0.5675 -0.4146  0.7288
 7000WAT      O28705   1.872   2.126   7.024  0.2334  0.1651  0.4330
 7000WAT     H128706   1.813   2.106   6.962  1.5869 -0.4782 -0.7022
 7000WAT     H228707   1.842   2.084   7.094 -0.5875 -0.2770 -0.1578
 7000WAT    EPW28708   1.859   2.117   7.025 -0.1156  0.0882  0.3983
 7001WAT      O28709   1.117   6.451   4.237  0.0015 -0.3276 -0.0036
 7001WAT     H128710   1.161   6.523   4.215 -0.8510  0.0938 -0.3722
 7001WAT     H228711   1.092   6.467   4.319  2.1037 -1.3692  0.9212
 7001WAT    EPW28712   1.120   6.464   4.246 -0.1599 -0.1636  0.4293
 7002WAT      O28713   4.233   0.028   5.191  0.1550 -0.0232 -1.0199
 7002WAT     H128714   4.282   0.047   5.121  0.1627 -2.8296 -1.9176
 7002WAT     H228715   4.275   0.067   5.257  2.2732 -0.3272 -2.0924
 7002WAT    EPW28716   4.247   0.037   5.190  0.1190 -0.5753 -0.8882
 7003WAT      O28717   1.647   3.966   0.233 -0.5816 -0.2525 -0.0335
 7003WAT     H128718   1.625   3.929   0.157 -2.2622 -1.4805  0.9861
 7003WAT     H228719   1.572   3.994   0.265  0.3704  2.2585  0.2513
 7003WAT    EPW28720   1.633   3.965   0.226 -0.2859  0.3542 -0.4663
 7004WAT      O28721   6.568   4.429   4.937  0.0470 -0.0894 -0.6818
 7004WAT     H128722   6.588   4.348   4.961 -0.7121 -0.7425 -2.0905
 7004WAT     H228723   6.542   4.467   5.011 -0.0693 -1.2894 -0.0867
 7004WAT    EPW28724   6.567   4.423   4.951 -0.1784 -0.5563 -0.5279
 7005WAT      O28725   3.658   4.118   6.530  0.0119  0.4826 -0.1044
 7005WAT     H128726   3.589   4.171   6.530  0.5695  1.2214 -0.5282
 7005WAT     H228727   3.645   4.069   6.601 -0.1093  1.7280  0.7705
 7005WAT    EPW28728   3.646   4.119   6.541 -0.0274 -0.1679 -0.6573
 7006WAT      O28729   2.536   4.902   7.531  0.1638 -0.4131 -0.2213
 7006WAT     H128730   2.503   4.890   7.611  0.3451  2.5847  0.4141
 7006WAT     H228731   2.614   4.937   7.546 -0.7116  2.4473 -1.5983
 7006WAT    EPW28732   2.543   4.905   7.545 -0.5211  0.1453 -0.4277
 7007WAT      O28733   1.293   2.365   4.312 -0.2514  0.6224 -0.3839
 7007WAT     H128734   1.339   2.294   4.293 -0.1947  0.9704 -1.6081
 7007WAT     H228735   1.228   2.334   4.362  0.4676 -0.0844  0.1473
 7007WAT    EPW28736   1.290   2.350   4.317 -0.5509  0.4683 -0.2400
 7008WAT      O28737   3.469   7.546   7.025 -0.1390 -0.1781 -0.0766
 7008WAT     H128738   3.410   7.496   7.065 -0.6365 -0.3144 -0.9423
 7008WAT     H228739   3.483   7.611   7.082 -0.2947 -0.7265  0.6017
 7008WAT    EPW28740   3.462   7.548   7.039  0.0885  0.4035 -0.1812
 7009WAT      O28741   5.235   3.454   4.914 -0.1887 -0.0680 -0.5138
 7009WAT     H128742   5.262   3.412   4.986 -0.9596  1.1626  0.5257
 7009WAT     H228743   5.240   3.392   4.852 -0.5875 -1.4935  0.8022
 7009WAT    EPW28744   5.240   3.438   4.916  0.7063 -0.1515  0.4920
 7010WAT      O28745   1.694   7.140   6.678 -0.4613 -0.0602 -0.4384
 7010WAT     H128746   1.627   7.181   6.715 -1.5898 -0.4508 -1.9086
 7010WAT     H228747   1.739   7.109   6.745 -0.8219  1.6325  0.6493
 7010WAT    EPW28748   1.690   7.141   6.693  0.1485 -0.4544  0.0733
 7011WAT      O28749   4.984   0.012   4.559  0.2070 -0.4194 -0.3010
 7011WAT     H128750   5.021   0.090   4.571  2.4747 -1.5680  0.6825
 7011WAT     H228751   5.032  -0.025   4.497  0.7172 -1.9102  0.9088
 7011WAT    EPW28752   4.996   0.018   4.552  0.1455 -0.0671  0.2565
 7012WAT      O28753   5.470   5.862   5.637  0.1226  0.2843  0.5655
 7012WAT     H128754   5.404   5.817   5.602 -0.3122  2.0803 -1.0341
 7012WAT     H228755   5.433   5.934   5.668  1.1357  0.6717  0.9320
 7012WAT    EPW28756   5.455   5.866   5.636 -0.2693 -0.0859 -0.1217
 7013WAT      O28757   3.893   6.500   4.774  0.5820 -0.7918 -0.1808
 7013WAT     H128758   3.826   6.548   4.804  1.7066 -0.0263  1.2291
 7013WAT     H228759   3.908   6.444   4.838  1.3702 -0.8770 -0.4356
 7013WAT    EPW28760   3.885   6.499   4.788 -0.1300 -0.0843  0.2807
 7014WAT      O28761   6.621   6.077   3.774 -0.0057  0.5954 -0.1691
 7014WAT     H128762   6.708   6.070   3.770  0.0710  0.4982  1.0934
 7014WAT     H228763   6.593   5.998   3.749  0.3944 -0.2315  1.7799
 7014WAT    EPW28764   6.630   6.064   3.770 -0.8296  0.1756 -0.0470
 7015WAT      O28765   7.072   3.064   6.709  0.4239  0.2150  0.0912
 7015WAT     H128766   7.151   3.034   6.685 -0.1384 -0.2475 -1.2754
 7015WAT     H228767   7.031   2.993   6.737  1.3842  0.8787  3.5833
 7015WAT    EPW28768   7.078   3.049   6.709  0.5556 -0.1617 -0.0576
 7016WAT      O28769   6.029   2.172   2.184 -0.2323 -0.8128  0.5021
 7016WAT     H128770   6.093   2.183   2.126 -1.9426  0.8526 -1.2058
 7016WAT     H228771   6.028   2.247   2.229 -1.9334 -0.1470 -0.5614
 7016WAT    EPW28772   6.039   2.185   2.182  0.5806  0.0422  0.2896
 7017WAT      O28773   2.587   4.279   5.433  0.2487 -0.0554  0.2206
 7017WAT     H128774   2.596   4.325   5.360 -0.3269  0.3367  0.3844
 7017WAT     H228775   2.645   4.215   5.425  0.0836 -0.1057 -0.6525
 7017WAT    EPW28776   2.597   4.276   5.421 -0.2493 -0.1254  0.4616
 7018WAT      O28777   3.443   3.842   4.713 -0.0185 -0.0305  0.0280
 7018WAT     H128778   3.480   3.921   4.722  1.7785 -0.7977 -0.2292
 7018WAT     H228779   3.377   3.857   4.659  0.4743  1.2519 -0.2623
 7018WAT    EPW28780   3.439   3.856   4.707 -0.2835  0.2686  0.5107
 7019WAT      O28781   3.730   6.576   0.068 -0.1106 -0.4439 -0.0888
 7019WAT     H128782   3.748   6.631   0.003 -0.5658  1.1949  1.1281
 7019WAT     H228783   3.788   6.511   0.056  1.4355  0.9796 -0.7152
 7019WAT    EPW28784   3.741   6.574   0.057 -0.5419  0.1140  0.5420
 7020WAT      O28785   4.787   3.757   1.974  0.3598  0.2037 -0.9866
 7020WAT     H128786   4.714   3.803   1.988 -0.3444 -1.1605  0.1381
 7020WAT     H228787   4.844   3.788   2.032  0.1930  0.3145 -0.8822
 7020WAT    EPW28788   4.784   3.768   1.984 -0.3519  0.0601  0.3439
 7021WAT      O28789   0.658   6.164   4.038  0.2077 -0.0477 -0.1652
 7021WAT     H128790   0.619   6.086   4.034 -0.3542  0.1714  0.7622
 7021WAT     H228791   0.594   6.219   4.060  0.2208  1.0063 -2.4473
 7021WAT    EPW28792   0.643   6.161   4.041  0.2684  0.0075 -0.2006
 7022WAT      O28793   7.270   1.661   3.955 -0.2541 -0.2672  0.1232
 7022WAT     H128794   7.276   1.685   4.039 -0.1301 -1.3961  0.4679
 7022WAT     H228795   7.192   1.690   3.931 -0.1131  0.4446  0.5007
 7022WAT    EPW28796   7.259   1.669   3.964  0.4809 -0.2540  0.3105
 7023WAT      O28797   6.283   1.578   4.934 -0.0410 -0.0773 -0.3340
 7023WAT     H128798   6.277   1.574   4.847 -0.0416  0.2533 -0.3504
 7023WAT     H228799   6.221   1.635   4.956  0.8842  0.9240 -0.2382
 7023WAT    EPW28800   6.273   1.586   4.924  0.6656  0.9679 -0.6064
 7024WAT      O28801   5.662   3.433   2.313  0.1213 -0.0388 -0.3483
 7024WAT     H128802   5.611   3.481   2.260 -0.4793  0.3981  0.6030
 7024WAT     H228803   5.735   3.423   2.267 -0.4523  0.1698 -1.3416
 7024WAT    EPW28804   5.665   3.438   2.298  0.1422  0.5837 -0.2620
 7025WAT      O28805   7.021   1.609   6.067 -0.4188  0.2186 -0.1289
 7025WAT     H128806   6.980   1.591   6.142 -0.2830 -0.3212 -0.1749
 7025WAT     H228807   7.103   1.581   6.081 -0.4250 -0.0039 -0.5185
 7025WAT    EPW28808   7.027   1.602   6.080  0.0023  0.1251 -0.0976
 7026WAT      O28809   4.095   1.472   2.890  0.3879  0.6590  0.1825
 7026WAT     H128810   4.035   1.536   2.888 -0.4751  0.0194  2.1771
 7026WAT     H228811   4.049   1.401   2.871  0.1583  0.0032  2.7734
 7026WAT    EPW28812   4.079   1.471   2.887 -0.3460 -0.4246 -0.1006
 7027WAT      O28813   4.912   0.906   1.319  0.0296 -0.3839 -0.7643
 7027WAT     H128814   4.987   0.947   1.339  0.8293 -1.8709 -0.6083
 7027WAT     H228815   4.881   0.953   1.252  0.6804  0.7348 -0.3088
 7027WAT    EPW28816   4.919   0.919   1.312  0.7675 -0.3097  0.3138
 7028WAT      O28817   5.674   5.728   0.311  0.2767  0.3434 -0.1084
 7028WAT     H128818   5.677   5.740   0.224 -0.0578 -1.6797 -0.4388
 7028WAT     H228819   5.660   5.809   0.341 -2.2667  0.8046 -2.1179
 7028WAT    EPW28820   5.672   5.742   0.302  0.0581  0.0389 -0.0323
 7029WAT      O28821   4.338   0.547   5.267 -0.1573  0.5708 -0.0307
 7029WAT     H128822   4.378   0.476   5.235 -0.0400 -0.1868  1.6800
 7029WAT     H228823   4.260   0.547   5.226 -0.4972 -1.0561  0.5474
 7029WAT    EPW28824   4.332   0.537   5.256  0.0653  0.9943  0.3661
 7030WAT      O28825   5.185   4.470   4.075 -0.6691 -0.1753 -0.2069
 7030WAT     H128826   5.239   4.443   4.137  0.3809 -0.7459 -1.3220
 7030WAT     H228827   5.231   4.528   4.029 -0.2300 -2.0340 -2.3116
 7030WAT    EPW28828   5.200   4.474   4.077  0.0857  0.1942 -0.0925
 7031WAT      O28829   6.678   0.278   3.336 -0.0382 -0.6563 -0.4949
 7031WAT     H128830   6.660   0.292   3.252 -0.3245 -1.4086 -0.5644
 7031WAT     H228831   6.726   0.348   3.358 -1.5504  0.5342 -0.7587
 7031WAT    EPW28832   6.683   0.291   3.327  0.2527  0.6381  0.1093
 7032WAT      O28833   5.307   2.442   4.069 -0.1269  0.1501  0.2598
 7032WAT     H128834   5.267   2.517   4.088 -2.3804 -0.5082 -1.4769
 7032WAT     H228835   5.267   2.384   4.121 -0.0028 -0.2020 -0.0297
 7032WAT    EPW28836   5.295   2.445   4.080  0.5832 -0.0591  0.6321
 7033WAT      O28837   1.318   0.407   0.735  0.7844 -0.2453 -0.1486
 7033WAT     H128838   1.320   0.319   0.735  2.1130 -0.2305  0.1363
 7033WAT     H228839   1.233   0.425   0.732  0.3863 -1.5543  1.6048
 7033WAT    EPW28840   1.306   0.396   0.735 -0.0944  0.1763  0.0179
 7034WAT      O28841   3.261   5.252   1.032  0.2899  0.3839  0.5646
 7034WAT     H128842   3.322   5.302   0.995 -0.9506  1.8902  0.4551
 7034WAT     H228843   3.236   5.199   0.968  0.5114  0.7059  0.2075
 7034WAT    EPW28844   3.267   5.252   1.017 -0.5084  0.6667 -0.0434
 7035WAT      O28845   5.355   6.073   6.339  0.1172 -0.0064  0.1779
 7035WAT     H128846   5.362   6.086   6.425  0.8597 -0.2907  0.1668
 7035WAT     H228847   5.285   6.121   6.317 -0.6245 -0.6311  1.0843
 7035WAT    EPW28848   5.346   6.082   6.348  0.1695  0.1873  0.2937
 7036WAT      O28849   0.452   5.080   6.664  0.1761 -0.1190 -0.0675
 7036WAT     H128850   0.427   5.163   6.673 -3.4052 -1.0850  0.4582
 7036WAT     H228851   0.524   5.075   6.713  2.1181  3.1606 -2.1729
 7036WAT    EPW28852   0.459   5.092   6.672 -0.3007  0.6278 -0.0902
 7037WAT      O28853   3.285   2.039   7.281 -0.3885 -0.1736  0.1324
 7037WAT     H128854   3.262   1.959   7.255 -2.1356 -0.1541  1.4369
 7037WAT     H228855   3.371   2.040   7.268 -0.4594 -1.9093 -0.8269
 7037WAT    EPW28856   3.294   2.027   7.275 -0.2108 -0.1372  0.4517
 7038WAT      O28857   6.916   5.592   6.297 -0.2163  0.4329  0.8011
 7038WAT     H128858   6.908   5.677   6.277  0.5697  0.6479  1.3224
 7038WAT     H228859   6.917   5.553   6.219 -2.6562  0.6568  0.5750
 7038WAT    EPW28860   6.915   5.599   6.282  0.0162  0.6296  0.2890
 7039WAT      O28861   6.216   3.330   6.370 -0.8413 -0.8520 -0.1615
 7039WAT     H128862   6.229   3.321   6.285 -0.1446  0.9909 -0.3045
 7039WAT     H228863   6.130   3.323   6.379 -1.3722  2.2543 -1.5770
 7039WAT    EPW28864   6.205   3.328   6.359  0.7704  0.0113 -0.1704
 7040WAT      O28865   2.819   2.836   3.381 -0.2901 -0.3583  0.2517
 7040WAT     H128866   2.842   2.831   3.465  0.7706 -0.7239 -0.0424
 7040WAT     H228867   2.872   2.897   3.349 -2.0267  1.2579  0.2327
 7040WAT    EPW28868   2.830   2.844   3.389 -0.3757 -0.1629 -0.0651
 7041WAT      O28869   6.451   7.446   4.399  0.4069 -0.1570  0.6412
 7041WAT     H128870   6.523   7.476   4.360 -0.1568  1.7594  0.9732
 7041WAT     H228871   6.456   7.479   4.479 -0.2294 -1.0550  1.0679
 7041WAT    EPW28872   6.463   7.455   4.405 -0.1281  0.1684  0.1943
 7042WAT      O28873   6.189   3.621   0.074 -0.0623  0.8006 -0.0527
 7042WAT     H128874   6.272   3.606   0.097 -0.6596 -2.3146  0.6052
 7042WAT     H228875   6.163   3.544   0.041 -2.6234  1.7374 -0.4454
 7042WAT    EPW28876   6.197   3.607   0.072  0.4793  0.4049  0.2613
 7043WAT      O28877   6.859   3.182   7.284 -0.7217  0.5318  0.5978
 7043WAT     H128878   6.792   3.231   7.311 -1.7149  0.0772 -0.9258
 7043WAT     H228879   6.907   3.237   7.237 -0.5103  0.6214  0.9107
 7043WAT    EPW28880   6.857   3.197   7.281 -0.1706  0.7922 -0.7015
 7044WAT      O28881   3.576   6.924   3.198 -0.2602 -0.2642  0.3594
 7044WAT     H128882   3.521   6.861   3.220 -1.1044  1.0627  2.4081
 7044WAT     H228883   3.530   6.975   3.144 -0.4730 -0.0649  0.7240
 7044WAT    EPW28884   3.561   6.922   3.193  0.2197 -0.0461  0.3548
 7045WAT      O28885   2.262   0.952   7.281 -0.0275  0.3804  0.0206
 7045WAT     H128886   2.315   0.887   7.304 -0.2759  0.0162 -0.4270
 7045WAT     H228887   2.316   1.009   7.241 -0.0607 -0.2884 -1.0313
 7045WAT    EPW28888   2.278   0.951   7.278 -0.1930 -0.3241  0.5656
 7046WAT      O28889   2.676   6.610   3.876  0.1183 -0.1161 -1.0509
 7046WAT     H128890   2.666   6.536   3.831  0.3040  0.0966 -1.4584
 7046WAT     H228891   2.596   6.645   3.875 -0.2982 -0.9672  0.3561
 7046WAT    EPW28892   2.662   6.604   3.869 -0.1399  0.4352  0.4035
 7047WAT      O28893   2.453   6.415   4.750 -0.8220  0.7443  0.4263
 7047WAT     H128894   2.523   6.377   4.786 -1.0643 -0.8197 -0.6718
 7047WAT     H228895   2.486   6.455   4.679 -0.8084  1.3579  0.7703
 7047WAT    EPW28896   2.468   6.415   4.745  0.1598  0.1998 -0.1861
 7048WAT      O28897   1.976   7.140   7.138 -0.3666 -0.1060  0.3254
 7048WAT     H128898   1.970   7.204   7.080 -0.4276 -0.7294 -0.3753
 7048WAT     H228899   2.043   7.092   7.109 -0.0376 -0.1210  1.0848
 7048WAT    EPW28900   1.985   7.142   7.126 -0.0805  0.3441  0.0139
 7049WAT      O28901   1.858   6.955   7.577 -0.2562 -0.0067 -0.3450
 7049WAT     H128902   1.818   6.962   7.499 -0.0657  0.6377 -0.3937
 7049WAT     H228903   1.837   7.030   7.617  0.9829  0.4031 -0.4208
 7049WAT    EPW28904   1.849   6.967   7.571 -0.4689  0.9235  0.3860
 7050WAT      O28905   4.922   6.914   3.592 -0.1195  0.4602  0.3713
 7050WAT     H128906   4.885   6.989   3.570 -0.5241  0.3701  0.7328
 7050WAT     H228907   5.004   6.936   3.614  0.4580  0.5032 -1.6051
 7050WAT    EPW28908   4.929   6.928   3.592  0.1740  0.2533  0.3804
 7051WAT      O28909   0.422   2.667   3.582 -0.1026  0.1461  0.0108
 7051WAT     H128910   0.370   2.631   3.521 -1.8491  1.5999  0.5389
 7051WAT     H228911   0.371   2.669   3.652  0.7976  1.3856  0.6492
 7051WAT    EPW28912   0.407   2.662   3.583  0.5740  0.1942 -0.8409
 7052WAT      O28913   4.747   0.561   3.969 -0.2196 -0.2058  0.3541
 7052WAT     H128914   4.741   0.585   3.885 -0.3762  0.6627  0.6116
 7052WAT     H228915   4.828   0.584   3.992  0.3604 -1.7775  0.0500
 7052WAT    EPW28916   4.758   0.568   3.960  0.7240 -0.5095  0.0839
 7053WAT      O28917   3.688   3.435   4.935 -0.0673 -0.6559  0.1927
 7053WAT     H128918   3.703   3.518   4.959 -1.6668  0.4412 -2.2814
 7053WAT     H228919   3.748   3.390   4.980  1.7019  1.9572  0.6581
 7053WAT    EPW28920   3.699   3.441   4.945  0.3630  0.7220  0.2673
 7054WAT      O28921   0.573   0.309   1.471  0.0558  0.1334 -0.0554
 7054WAT     H128922   0.493   0.317   1.506 -0.2992  1.3833 -1.0826
 7054WAT     H228923   0.570   0.232   1.431 -0.4350 -0.0929  0.3980
 7054WAT    EPW28924   0.561   0.299   1.470  0.1945  0.4268  0.4932
 7055WAT      O28925   3.861   4.540   5.888 -0.7206  0.0689  0.2620
 7055WAT     H128926   3.795   4.590   5.860 -0.5449  0.2098  0.0927
 7055WAT     H228927   3.874   4.485   5.821 -0.9029 -0.1979  0.4407
 7055WAT    EPW28928   3.853   4.539   5.874  0.3497 -0.0474  0.4840
 7056WAT      O28929   5.783   6.470   7.536  0.5368  0.4207  0.2817
 7056WAT     H128930   5.838   6.419   7.490  1.8437  0.8792  1.2628
 7056WAT     H228931   5.749   6.523   7.475  0.5307 -0.4249 -0.4752
 7056WAT    EPW28932   5.786   6.470   7.520 -0.1978  0.2925 -0.0930
 7057WAT      O28933   0.687   4.882   1.264 -0.5312  0.2164 -0.8208
 7057WAT     H128934   0.714   4.949   1.214  1.9581  0.0726  0.1865
 7057WAT     H228935   0.760   4.837   1.279 -1.5760 -0.9349  1.1916
 7057WAT    EPW28936   0.701   4.886   1.259 -0.4998  0.7365  0.1971
 7058WAT      O28937   4.902   2.565   0.227  0.3749  0.2294 -0.4437
 7058WAT     H128938   4.982   2.589   0.200  0.6493 -0.5152 -0.3315
 7058WAT     H228939   4.865   2.534   0.154  0.5853 -0.4189 -0.2851
 7058WAT    EPW28940   4.908   2.564   0.212  0.4004  0.2912 -0.8871
 7059WAT      O28941   0.856   3.808   5.615 -0.7797  0.5551 -0.8130
 7059WAT     H128942   0.780   3.766   5.613 -0.6084  0.1473  0.4193
 7059WAT     H228943   0.910   3.751   5.652 -0.6258  1.9478  1.2882
 7059WAT    EPW28944   0.853   3.794   5.620  0.3190  0.0721 -0.0963
 7060WAT      O28945   3.325   4.376   2.054  0.0368  0.2508  0.3320
 7060WAT     H128946   3.264   4.437   2.069 -0.7067 -0.3262 -0.2794
 7060WAT     H228947   3.292   4.305   2.093  0.7221  0.1369  0.7165
 7060WAT    EPW28948   3.311   4.375   2.062 -0.4529 -0.0375 -0.0989
 7061WAT      O28949   5.425   2.457   0.664  0.9627 -0.4051  0.1071
 7061WAT     H128950   5.410   2.475   0.580  1.3880 -1.7072 -0.2719
 7061WAT     H228951   5.472   2.525   0.691 -0.8139  0.9996 -0.1626
 7061WAT    EPW28952   5.430   2.470   0.655  0.5481 -0.7185 -0.3965
 7062WAT      O28953   1.848   5.438   0.500 -0.2500  0.0305  0.0003
 7062WAT     H128954   1.904   5.418   0.437  0.0620  0.1750  0.2287
 7062WAT     H228955   1.898   5.475   0.562 -0.8635  2.1989 -0.6936
 7062WAT    EPW28956   1.863   5.440   0.500 -0.0306  0.3300  0.2569
 7063WAT      O28957   2.141   6.327   3.562 -0.3901 -0.0885  0.0731
 7063WAT     H128958   2.097   6.401   3.546 -1.5643  0.0380  3.1360
 7063WAT     H228959   2.219   6.355   3.589 -1.1909  0.2010  2.2838
 7063WAT    EPW28960   2.146   6.342   3.564 -0.2695 -0.4930  0.5437
 7064WAT      O28961   5.558   3.890   5.285 -0.0634 -0.3287  0.5429
 7064WAT     H128962   5.512   3.964   5.290  1.6101  0.9541 -1.3684
 7064WAT     H228963   5.518   3.836   5.341 -1.3911  1.9856  1.9465
 7064WAT    EPW28964   5.546   3.893   5.294  0.3987 -0.0304  0.0978
 7065WAT      O28965   6.558   4.106   5.994 -0.1794  0.5150 -0.3586
 7065WAT     H128966   6.507   4.085   6.062 -0.9726 -0.2941 -1.1676
 7065WAT     H228967   6.525   4.182   5.967 -1.7673 -0.5240 -1.5604
 7065WAT    EPW28968   6.545   4.114   6.000 -0.3480 -0.0756 -0.1880
 7066WAT      O28969   7.243   4.443   4.042 -0.5039  0.1050  0.2198
 7066WAT     H128970   7.189   4.401   3.988 -1.0329  1.9843 -0.7976
 7066WAT     H228971   7.251   4.388   4.109 -1.4424 -1.4347 -0.8522
 7066WAT    EPW28972   7.236   4.429   4.044  0.2749  0.4128  0.3629
 7067WAT      O28973   2.661   4.177   2.457  0.2999 -0.2181 -0.2770
 7067WAT     H128974   2.643   4.168   2.542  0.3567  0.2761 -0.2122
 7067WAT     H228975   2.710   4.107   2.439 -0.8017 -1.0369 -0.2175
 7067WAT    EPW28976   2.666   4.165   2.467 -0.0939 -0.0225  0.6982
 7068WAT      O28977   1.317   5.613   0.641  0.2341  0.4522 -0.5493
 7068WAT     H128978   1.305   5.537   0.683 -2.1335  0.9124 -0.2533
 7068WAT     H228979   1.402   5.614   0.625  0.2395 -2.7300 -1.4469
 7068WAT    EPW28980   1.327   5.602   0.645  0.7199  0.2506 -0.7753
 7069WAT      O28981   3.724   0.536   1.054 -0.1423 -0.2165 -0.2057
 7069WAT     H128982   3.705   0.612   1.092  0.9304  1.3061 -2.5015
 7069WAT     H228983   3.658   0.523   0.999 -0.9511 -1.6643  1.0077
 7069WAT    EPW28984   3.712   0.545   1.052  0.1459 -0.1085 -0.3089
 7070WAT      O28985   4.702   3.942   3.210  0.2120  0.1047 -0.2454
 7070WAT     H128986   4.696   3.862   3.244 -0.2967  0.3314  0.2272
 7070WAT     H228987   4.629   3.950   3.163  1.1808 -0.4158 -1.9043
 7070WAT    EPW28988   4.691   3.931   3.208  0.3980 -0.0962  0.2324
 7071WAT      O28989   4.703   6.227   2.704 -0.2315 -0.5586  0.0891
 7071WAT     H128990   4.782   6.191   2.713 -0.3377 -0.5673  1.1406
 7071WAT     H228991   4.656   6.163   2.667 -0.1090 -1.0916  0.8167
 7071WAT    EPW28992   4.708   6.212   2.700 -0.5142  0.0163  0.3576
 7072WAT      O28993   5.820   5.091   2.641 -0.2670  0.0860  0.6762
 7072WAT     H128994   5.839   5.174   2.658 -0.5231 -0.2804  2.9905
 7072WAT     H228995   5.756   5.072   2.696 -1.2618 -1.2565 -0.8410
 7072WAT    EPW28996   5.813   5.101   2.651 -0.4676 -0.6748  0.3937
 7073WAT      O28997   3.675   5.510   3.701 -0.3175  0.2895 -0.9344
 7073WAT     H128998   3.663   5.594   3.722  1.1128 -0.0401  1.5518
 7073WAT     H228999   3.761   5.502   3.697 -0.4481 -0.7870 -2.6791
 7073WAT    EPW29000   3.686   5.521   3.703  0.1926  0.4433  0.4407
 7074WAT      O29001   6.967   0.229   4.720 -0.1747  0.2118  0.4048
 7074WAT     H129002   6.977   0.244   4.806 -1.6470  0.4149  0.5680
 7074WAT     H229003   7.035   0.177   4.701  0.4914  0.6107  1.5651
 7074WAT    EPW29004   6.978   0.223   4.730  0.1295  0.2131  0.1347
 7075WAT      O29005   6.486   2.947   1.605  0.0570  0.5751  0.3366
 7075WAT     H129006   6.563   2.922   1.638 -0.5009 -1.2026  0.4311
 7075WAT     H229007   6.483   2.908   1.527 -0.7369  0.6021  0.3373
 7075WAT    EPW29008   6.497   2.937   1.598  0.2577  0.1355 -0.9236
 7076WAT      O29009   1.928   6.438   7.241 -0.1472  0.2074  0.0851
 7076WAT     H129010   1.912   6.512   7.285  2.5726  0.8421  0.1757
 7076WAT     H229011   1.863   6.435   7.182 -1.6925  1.3600  1.6224
 7076WAT    EPW29012   1.916   6.449   7.239  0.5089  0.0835 -0.3054
 7077WAT      O29013   4.297   3.174   7.233 -0.0173  0.0825 -0.0049
 7077WAT     H129014   4.283   3.168   7.319  0.8489 -0.2588  0.1193
 7077WAT     H229015   4.235   3.230   7.207 -0.5271 -0.0921  0.7741
 7077WAT    EPW29016   4.286   3.182   7.242 -0.4408 -0.9742 -0.0938
 7078WAT      O29017   5.788   5.112   1.443 -0.5100 -0.2146 -0.3970
 7078WAT     H129018   5.760   5.193   1.426  0.3443  0.1498 -0.1247
 7078WAT     H229019   5.717   5.063   1.432 -0.8187  0.4487 -1.5446
 7078WAT    EPW29020   5.774   5.116   1.439  0.0207  0.5933 -0.9978
 7079WAT      O29021   4.171   3.617   4.044 -0.1664  0.3575  0.1366
 7079WAT     H129022   4.139   3.608   3.964  0.9662  1.2831 -0.4568
 7079WAT     H229023   4.178   3.535   4.074  0.4728 -0.0853 -1.1593
 7079WAT    EPW29024   4.167   3.604   4.037 -0.2167  0.2530 -0.8694
 7080WAT      O29025   0.846   1.717   4.144  0.7993 -0.2026 -0.2441
 7080WAT     H129026   0.816   1.799   4.147 -0.9757 -0.8297  0.5447
 7080WAT     H229027   0.787   1.676   4.093  1.3669 -1.1071 -0.1989
 7080WAT    EPW29028   0.833   1.723   4.137  0.4137 -0.2589 -0.0189
 7081WAT      O29029   0.668   7.146   6.540 -0.1398 -0.3972 -0.1540
 7081WAT     H129030   0.736   7.141   6.485 -0.9178  0.1338 -1.1856
 7081WAT     H229031   0.663   7.065   6.574  0.4329 -0.6907 -0.7619
 7081WAT    EPW29032   0.677   7.133   6.537 -0.0996 -0.1632  0.2559
 7082WAT      O29033   3.906   4.576   3.918  0.1296 -0.1059  0.5811
 7082WAT     H129034   3.826   4.581   3.953 -0.2665  1.3903 -0.4277
 7082WAT     H229035   3.937   4.657   3.925  1.1954 -0.4501  0.1071
 7082WAT    EPW29036   3.899   4.589   3.924  0.4163 -0.1450 -0.1153
 7083WAT      O29037   7.545   0.439   1.885 -0.0321 -0.0541  0.1669
 7083WAT     H129038   7.478   0.397   1.921 -0.2815  0.5361  0.4041
 7083WAT     H229039   7.586   0.377   1.839  0.8300 -1.0768  2.1927
 7083WAT    EPW29040   7.541   0.423   1.884 -0.0739 -0.0408 -0.1562
 7084WAT      O29041   4.365   4.088   3.556 -0.7279  0.4417 -0.0954
 7084WAT     H129042   4.327   4.017   3.522 -0.5700 -0.2105  1.0287
 7084WAT     H229043   4.312   4.153   3.533 -1.4600 -0.1844 -0.2198
 7084WAT    EPW29044   4.352   4.087   3.548  0.4450  0.5157  0.3513
 7085WAT      O29045   1.884   5.276   2.658 -0.2921 -0.4695 -0.0947
 7085WAT     H129046   1.823   5.324   2.619 -1.3190 -0.9952  0.8146
 7085WAT     H229047   1.939   5.336   2.691 -0.1753 -0.0004 -1.1097
 7085WAT    EPW29048   1.883   5.292   2.657  0.0118 -0.1785  0.3444
 7086WAT      O29049   5.128   6.657   0.395 -0.0233 -0.8884  0.5085
 7086WAT     H129050   5.116   6.696   0.318  1.6826 -1.1179  0.0747
 7086WAT     H229051   5.053   6.615   0.409 -2.4842  3.2610  1.5550
 7086WAT    EPW29052   5.115   6.657   0.385  0.6973  0.5915 -0.7904
 7087WAT      O29053   4.555   1.937   2.751 -0.4608  0.3659  0.1829
 7087WAT     H129054   4.555   2.018   2.782  1.8308  0.0380  1.1853
 7087WAT     H229055   4.625   1.934   2.700  0.1683 -1.2811  1.0709
 7087WAT    EPW29056   4.565   1.949   2.748  0.0912 -0.1537 -1.1161
 7088WAT      O29057   1.433   3.763   5.523  0.7073  0.3197  0.3132
 7088WAT     H129058   1.435   3.833   5.472  1.1666  0.4286  0.4753
 7088WAT     H229059   1.472   3.701   5.474  1.3590  0.4851  0.6165
 7088WAT    EPW29060   1.439   3.764   5.508  0.3041  0.1640  0.6782
 7089WAT      O29061   2.918   7.555   1.998 -0.2988 -0.0327  0.4165
 7089WAT     H129062   2.939   7.574   1.916 -3.1582  4.0667  0.3645
 7089WAT     H229063   2.893   7.471   1.994  1.3537 -0.4998 -2.4005
 7089WAT    EPW29064   2.917   7.545   1.986  0.2585 -0.2355 -0.4176
 7090WAT      O29065   4.097   6.384   2.943  0.1088  0.1595 -0.1783
 7090WAT     H129066   4.183   6.375   2.932 -0.0719 -1.1987 -0.7138
 7090WAT     H229067   4.090   6.454   2.994  1.4440  1.2428 -1.3918
 7090WAT    EPW29068   4.109   6.393   2.949  0.1710 -0.1993 -0.3956
 7091WAT      O29069   5.329   0.712   0.152 -0.0037 -0.1385  0.1132
 7091WAT     H129070   5.403   0.748   0.121 -0.6954  0.6848 -0.6274
 7091WAT     H229071   5.277   0.708   0.082 -0.3334 -1.6508  0.4017
 7091WAT    EPW29072   5.333   0.717   0.137 -0.0185  0.1178  0.1398
 7092WAT      O29073   6.155   1.264   1.846 -0.5455  0.2606  0.2588
 7092WAT     H129074   6.106   1.191   1.851  0.2081 -0.2521  0.3177
 7092WAT     H229075   6.228   1.243   1.889  0.5651  0.3022 -1.4872
 7092WAT    EPW29076   6.158   1.250   1.853 -0.0078 -0.4253 -0.2309
 7093WAT      O29077   3.294   0.216   6.053 -0.2309 -0.2624 -0.1849
 7093WAT     H129078   3.243   0.184   5.990 -1.8285  0.7588  0.5277
 7093WAT     H229079   3.298   0.152   6.112 -0.8980 -0.2695 -0.1461
 7093WAT    EPW29080   3.287   0.202   6.053 -0.3419  0.4002  0.1523
 7094WAT      O29081   1.177   2.414   6.832 -0.2769 -0.1762  0.3024
 7094WAT     H129082   1.229   2.452   6.774 -1.0424 -0.2711 -0.4682
 7094WAT     H229083   1.108   2.467   6.836 -0.0712  0.0206  1.4032
 7094WAT    EPW29084   1.174   2.427   6.824 -0.5150  0.0100 -0.3531
 7095WAT      O29085   6.105   6.648   4.216 -0.0992  0.0723 -0.1148
 7095WAT     H129086   6.080   6.688   4.143 -2.3700  0.2343  0.6675
 7095WAT     H229087   6.177   6.692   4.240 -0.1532  0.9469 -1.4509
 7095WAT    EPW29088   6.112   6.661   4.209 -0.2672 -0.1833  0.3919
 7096WAT      O29089   7.262   3.044   4.799  0.1275  0.5641  0.2855
 7096WAT     H129090   7.197   3.102   4.807 -0.6560 -0.3153  0.5143
 7096WAT     H229091   7.313   3.060   4.867 -0.8323  0.1004  1.1432
 7096WAT    EPW29092   7.260   3.055   4.810  0.3123  0.7236 -0.7898
 7097WAT      O29093   7.001   3.112   1.469 -0.3049  0.1166  0.2661
 7097WAT     H129094   7.039   3.078   1.540  0.7732  0.0178 -0.3393
 7097WAT     H229095   6.948   3.172   1.502 -1.1482 -1.1178  1.2669
 7097WAT    EPW29096   6.999   3.116   1.484  0.0293 -0.0711 -0.4786
 7098WAT      O29097   6.798   3.170   2.698  0.1293  0.0160 -0.1021
 7098WAT     H129098   6.872   3.175   2.652  1.1749 -0.2575  1.5029
 7098WAT     H229099   6.797   3.245   2.743  0.6074 -0.9462  1.5649
 7098WAT    EPW29100   6.809   3.182   2.698 -0.2608  0.1910  0.5034
 7099WAT      O29101   1.971   6.168   3.725  0.3613  0.3320  0.4785
 7099WAT     H129102   2.025   6.202   3.665 -0.8843 -0.7334 -1.3264
 7099WAT     H229103   2.019   6.168   3.797  1.2381  3.6019  0.0400
 7099WAT    EPW29104   1.986   6.173   3.727 -0.1884  0.2736  0.4220
 7100WAT      O29105   6.979   0.099   1.408  0.0681  0.0293 -0.1731
 7100WAT     H129106   6.926   0.039   1.444  0.6861 -0.4884 -0.1119
 7100WAT     H229107   7.047   0.102   1.463  0.1197  0.6762 -0.2616
 7100WAT    EPW29108   6.981   0.091   1.422  0.2853  0.3248 -0.2527
 7101WAT      O29109   0.259   2.801   7.003  0.3473 -1.0474 -0.6240
 7101WAT     H129110   0.323   2.827   6.951  0.9323 -2.4758 -0.6678
 7101WAT     H229111   0.187   2.817   6.957  0.5691  1.2842 -0.2657
 7101WAT    EPW29112   0.257   2.807   6.989  0.4067 -0.0145  0.9173
 7102WAT      O29113   7.602   4.282   0.236  0.2241 -0.3141  0.1955
 7102WAT     H129114   7.550   4.351   0.249  1.5906  0.7778  0.0865
 7102WAT     H229115   7.635   4.295   0.157  4.7670  2.0357  2.0531
 7102WAT    EPW29116   7.599   4.295   0.227 -0.0342 -0.2388  0.0362
 7103WAT      O29117   5.845   0.691   2.531  0.0752  0.3376  0.5040
 7103WAT     H129118   5.800   0.735   2.471 -0.4940  0.2353  0.8493
 7103WAT     H229119   5.920   0.671   2.491 -0.2141  0.4502 -0.0957
 7103WAT    EPW29120   5.849   0.695   2.516 -0.6283  0.1604  0.3834
 7104WAT      O29121   5.309   1.419   2.636 -0.4091  0.3794  0.0653
 7104WAT     H129122   5.313   1.391   2.719 -1.4201 -1.1297 -0.3451
 7104WAT     H229123   5.225   1.411   2.616  0.1275 -1.6952 -1.8353
 7104WAT    EPW29124   5.297   1.413   2.645  0.2512  0.3492 -0.8793
 7105WAT      O29125   1.712   2.837   2.110  0.2065  0.4663 -0.2613
 7105WAT     H129126   1.760   2.765   2.122 -2.2879 -1.5646 -1.6061
 7105WAT     H229127   1.753   2.896   2.160  1.7228 -2.1419  1.9201
 7105WAT    EPW29128   1.725   2.835   2.119  0.0551  0.7600 -0.2555
 7106WAT      O29129   5.353   6.935   6.372 -0.0401  0.4121 -0.4933
 7106WAT     H129130   5.423   6.941   6.320  0.8072  1.0337  0.6656
 7106WAT     H229131   5.344   7.016   6.404  0.8859 -0.3965  2.0677
 7106WAT    EPW29132   5.362   6.948   6.369 -0.2662  0.1325  0.5177
 7107WAT      O29133   7.354   6.983   6.268 -0.1731 -0.2640 -0.1038
 7107WAT     H129134   7.316   7.057   6.244  0.4958  0.2500  0.3623
 7107WAT     H229135   7.325   6.970   6.349 -1.4181 -1.3030 -0.6781
 7107WAT    EPW29136   7.344   6.992   6.277  0.3811 -0.1500 -0.6077
 7108WAT      O29137   2.185   5.420   1.518 -0.0428  0.1448  0.2201
 7108WAT     H129138   2.206   5.433   1.435  0.4386 -0.1289  0.2963
 7108WAT     H229139   2.130   5.352   1.515  0.1271  0.0114  0.1451
 7108WAT    EPW29140   2.180   5.412   1.506  0.3222  0.2717  0.1417
 7109WAT      O29141   1.115   0.406   4.842 -0.4064  0.3921  0.6732
 7109WAT     H129142   1.167   0.441   4.903  0.1240 -0.8474  0.9592
 7109WAT     H229143   1.171   0.364   4.790 -1.0659 -0.3441  0.5607
 7109WAT    EPW29144   1.131   0.405   4.843 -0.2488  0.6966  0.3044
 7110WAT      O29145   5.869   7.097   6.366  0.3616 -0.0864  0.3187
 7110WAT     H129146   5.898   7.028   6.321  0.7978 -0.5595  1.2974
 7110WAT     H229147   5.797   7.067   6.406  0.2562  0.1796  0.3326
 7110WAT    EPW29148   5.863   7.082   6.365  0.5652 -0.3258  0.3114
 7111WAT      O29149   1.583   3.322   1.094  0.1141  0.4024  0.0999
 7111WAT     H129150   1.663   3.330   1.060  0.4411 -1.4287  0.3299
 7111WAT     H229151   1.585   3.243   1.132 -2.1811 -0.2369 -0.9716
 7111WAT    EPW29152   1.595   3.312   1.095  0.5053 -0.2852  0.1933
 7112WAT      O29153   1.550   2.804   1.055 -0.0134  0.4771  0.1070
 7112WAT     H129154   1.531   2.738   1.109 -0.6651 -0.2536 -0.9747
 7112WAT     H229155   1.522   2.776   0.977 -0.2253  1.9998 -0.4064
 7112WAT    EPW29156   1.543   2.790   1.051  0.0719 -0.0123 -0.2809
 7113WAT      O29157   6.873   3.260   0.326  0.4027 -0.2721 -0.1590
 7113WAT     H129158   6.837   3.234   0.251  1.4705  0.5541 -0.9973
 7113WAT     H229159   6.806   3.291   0.372 -0.0861  0.5027 -1.3495
 7113WAT    EPW29160   6.858   3.260   0.322  0.1032 -0.5156 -0.3246
 7114WAT      O29161   3.852   2.927   0.811 -0.0382  0.0457  0.2822
 7114WAT     H129162   3.869   2.928   0.897  0.6099  0.3749  0.1546
 7114WAT     H229163   3.802   2.998   0.800  0.0103  0.0938  0.3643
 7114WAT    EPW29164   3.847   2.938   0.822 -0.3428  0.9767 -0.3478
 7115WAT      O29165   3.324   5.305   6.108  0.1951 -0.4617 -0.2470
 7115WAT     H129166   3.348   5.222   6.100 -1.3409 -0.8862 -0.7346
 7115WAT     H229167   3.241   5.305   6.081  0.9319  1.6999 -3.0263
 7115WAT    EPW29168   3.315   5.293   6.103 -0.0233  0.2798 -0.1289
 7116WAT      O29169   5.500   1.408   5.339  0.6810 -0.1948  0.5680
 7116WAT     H129170   5.573   1.375   5.305 -0.3178 -0.3300 -1.6204
 7116WAT     H229171   5.436   1.361   5.301 -0.5913  0.9645  1.1773
 7116WAT    EPW29172   5.501   1.396   5.328  0.0003 -0.1757  0.4505
 7117WAT      O29173   6.740   5.377   6.039 -0.3869 -0.2275 -0.0849
 7117WAT     H129174   6.726   5.295   6.013  1.3479 -0.7073  0.4045
 7117WAT     H229175   6.717   5.376   6.123  1.9115 -0.9235  0.6185
 7117WAT    EPW29176   6.734   5.365   6.048  0.0042  0.0484  0.0086
 7118WAT      O29177   5.291   5.358   7.165 -0.2609  0.2032  0.0649
 7118WAT     H129178   5.275   5.442   7.182 -0.9870  0.0881 -0.0079
 7118WAT     H229179   5.239   5.341   7.097 -0.2951 -0.3653  0.2319
 7118WAT    EPW29180   5.281   5.368   7.157 -0.1198  0.4849 -0.2415
 7119WAT      O29181   1.637   3.867   2.758  0.0615  0.0493  0.0597
 7119WAT     H129182   1.561   3.901   2.784  0.1999  0.9948 -0.6858
 7119WAT     H229183   1.632   3.872   2.671  1.0950  0.3952  0.0083
 7119WAT    EPW29184   1.625   3.873   2.749  0.0675 -0.4409  0.2546
 7120WAT      O29185   3.800   5.088   6.162  0.0933 -0.0321  0.0164
 7120WAT     H129186   3.820   5.046   6.088 -1.9559  0.5803 -0.9487
 7120WAT     H229187   3.833   5.167   6.150  0.5040 -0.1814  0.1388
 7120WAT    EPW29188   3.808   5.093   6.150  0.2085 -0.2533  0.0505
 7121WAT      O29189   2.895   0.403   0.427  0.4066 -0.1809  0.6523
 7121WAT     H129190   2.876   0.481   0.391  1.7625 -0.5127 -0.9369
 7121WAT     H229191   2.957   0.371   0.374  0.2427 -2.1370  1.5611
 7121WAT    EPW29192   2.902   0.410   0.414  0.4914  0.2510 -0.1918
 7122WAT      O29193   4.518   7.251   4.906  0.1283  0.0060  0.0631
 7122WAT     H129194   4.540   7.240   4.822  2.1210  1.5053  0.3265
 7122WAT     H229195   4.574   7.199   4.948 -0.9281 -0.8155  0.5189
 7122WAT    EPW29196   4.530   7.241   4.900  0.0980  0.1460  0.0731
 7123WAT      O29197   6.494   1.107   2.321 -0.6666  0.0216 -0.4209
 7123WAT     H129198   6.514   1.068   2.396 -0.1635 -0.3920 -0.7615
 7123WAT     H229199   6.501   1.192   2.340  0.1448 -0.0910 -0.1762
 7123WAT    EPW29200   6.498   1.114   2.335  0.2348 -0.1736  0.3542
 7124WAT      O29201   1.906   1.604   5.612 -0.1332  0.1470  0.1711
 7124WAT     H129202   1.853   1.573   5.551 -0.6895  1.8757 -0.2449
 7124WAT     H229203   1.854   1.648   5.666  0.3682 -1.1661  1.8305
 7124WAT    EPW29204   1.891   1.606   5.611  0.2676 -0.2829  0.9148
 7125WAT      O29205   1.084   6.973   6.542  0.1403 -0.1681  0.2036
 7125WAT     H129206   1.101   6.919   6.609  2.5045 -2.2205 -1.8248
 7125WAT     H229207   1.016   6.935   6.502  0.8942 -0.9053 -0.4158
 7125WAT    EPW29208   1.077   6.960   6.546 -0.3513  0.3648  0.0081
 7126WAT      O29209   1.664   5.508   3.690  0.1197  0.0588  0.1973
 7126WAT     H129210   1.579   5.523   3.702  0.2937  1.9756 -0.5119
 7126WAT     H229211   1.681   5.441   3.742 -2.3856 -2.2798 -1.7207
 7126WAT    EPW29212   1.654   5.500   3.699  0.1545 -0.1750  0.0977
 7127WAT      O29213   2.866   3.307   4.684 -0.1371 -0.3987 -0.1695
 7127WAT     H129214   2.904   3.228   4.676  0.7261 -0.0937  0.7221
 7127WAT     H229215   2.818   3.313   4.611  0.4111 -1.4156 -0.6528
 7127WAT    EPW29216   2.865   3.296   4.672 -0.1289  0.2404  0.3739
 7128WAT      O29217   2.483   1.670   2.812  0.1926  0.4468 -0.1745
 7128WAT     H129218   2.484   1.633   2.891 -0.4560  1.2739  0.2399
 7128WAT     H229219   2.401   1.698   2.804  0.7007  1.9829 -0.3563
 7128WAT    EPW29220   2.471   1.669   2.823 -0.0736  0.1878  0.8104
 7129WAT      O29221   4.004   1.168   5.544 -0.3310 -0.1187  0.1385
 7129WAT     H129222   3.937   1.224   5.545 -0.4965 -0.3101 -0.1286
 7129WAT     H229223   4.060   1.202   5.602 -0.1840  0.6242 -0.4176
 7129WAT    EPW29224   4.002   1.181   5.553  0.0936 -0.3802 -0.1540
 7130WAT      O29225   5.779   0.024   0.938  0.1763  0.3715 -0.0413
 7130WAT     H129226   5.765  -0.046   0.888  0.4335 -0.2942  0.7841
 7130WAT     H229227   5.863   0.043   0.922  0.5147 -0.3747  0.7621
 7130WAT    EPW29228   5.789   0.016   0.928  0.1792 -0.2271  0.2658
 7131WAT      O29229   5.413   3.861   0.132  0.5009 -0.2686  0.0889
 7131WAT     H129230   5.414   3.801   0.069 -0.2266 -1.0295  0.7624
 7131WAT     H229231   5.349   3.833   0.185 -0.9316  1.9224 -0.3721
 7131WAT    EPW29232   5.403   3.848   0.131  0.2458 -0.0529 -0.0887
 7132WAT      O29233   6.668   3.936   5.525 -0.3858  0.8468  0.0765
 7132WAT     H129234   6.616   3.979   5.471 -1.0754  0.7640  0.6610
 7132WAT     H229235   6.690   3.995   5.585  0.4750  0.9720 -0.3425
 7132WAT    EPW29236   6.663   3.951   5.526 -0.3468 -0.3534 -0.1536
 7133WAT      O29237   0.340   4.989   0.797  0.7023 -0.6521 -0.2414
 7133WAT     H129238   0.307   4.946   0.865  0.6013 -0.9947 -0.4968
 7133WAT     H229239   0.287   5.057   0.787  0.6037 -0.7076 -0.0958
 7133WAT    EPW29240   0.327   4.992   0.805 -0.7962  0.0046 -0.0191
 7134WAT      O29241   2.349   3.858   6.109 -0.0385  0.4362  0.1273
 7134WAT     H129242   2.279   3.807   6.119 -0.4092  0.9834  0.3545
 7134WAT     H229243   2.358   3.863   6.022  1.1994 -1.6081  0.0494
 7134WAT    EPW29244   2.340   3.851   6.097 -0.2426 -0.1363  0.3709
 7135WAT      O29245   2.581   1.153   2.138  0.2866  0.5354  0.1375
 7135WAT     H129246   2.607   1.131   2.219 -0.8590 -0.6781  0.2114
 7135WAT     H229247   2.520   1.093   2.120 -1.0136  2.0756 -0.7945
 7135WAT    EPW29248   2.576   1.141   2.147 -0.3010  0.6295  0.3190
 7136WAT      O29249   3.377   4.288   1.180 -0.1535  0.2836 -0.0161
 7136WAT     H129250   3.386   4.228   1.118 -0.4643 -0.5466  0.7192
 7136WAT     H229251   3.459   4.311   1.199 -0.0735  1.0182 -1.1595
 7136WAT    EPW29252   3.391   4.282   1.174 -0.2177  0.0903 -0.1000
 7137WAT      O29253   4.136   0.040   2.767  0.0970 -0.2749  0.6453
 7137WAT     H129254   4.157   0.001   2.843 -1.3355 -2.2649  0.1149
 7137WAT     H229255   4.203   0.093   2.751  1.4665 -1.4559  2.2178
 7137WAT    EPW29256   4.149   0.042   2.776  0.3543  0.0138  0.2559
 7138WAT      O29257   5.412   6.599   5.039 -0.8155  0.2456  0.0768
 7138WAT     H129258   5.361   6.534   5.066 -1.0334  0.0355 -0.8328
 7138WAT     H229259   5.437   6.637   5.114 -0.5764 -0.9529  0.6420
 7138WAT    EPW29260   5.408   6.595   5.054  0.3975 -0.0618 -0.0107
 7139WAT      O29261   4.995   6.495   2.957 -0.2492  0.6964  1.1206
 7139WAT     H129262   5.046   6.435   2.920 -1.0248  0.2585  0.7333
 7139WAT     H229263   5.041   6.569   2.951 -0.5085  0.7246 -1.0697
 7139WAT    EPW29264   5.009   6.497   2.951 -0.3072  0.2583  0.2912
 7140WAT      O29265   1.543   6.043   2.384  0.8215 -0.5482  0.0021
 7140WAT     H129266   1.614   6.051   2.435  2.0646  1.2519 -1.8224
 7140WAT     H229267   1.569   6.078   2.308 -1.2845 -2.0662 -1.5334
 7140WAT    EPW29268   1.557   6.049   2.381  0.6497 -0.1722  0.3041
 7141WAT      O29269   2.411   5.206   5.706 -0.2374 -0.0011  0.0995
 7141WAT     H129270   2.387   5.287   5.727  0.3370  0.2965 -0.3646
 7141WAT     H229271   2.439   5.173   5.782 -3.0838 -0.7725  0.9584
 7141WAT    EPW29272   2.411   5.213   5.720 -0.3102 -0.3871 -0.3149
 7142WAT      O29273   2.317   0.170   3.168 -0.5453 -0.4438 -0.1928
 7142WAT     H129274   2.242   0.153   3.210 -0.8941  0.1699 -0.5566
 7142WAT     H229275   2.369   0.103   3.191 -0.8859 -0.3698  0.8182
 7142WAT    EPW29276   2.313   0.157   3.177  0.2308  0.5871  0.1004
 7143WAT      O29277   4.292   5.414   5.773  0.4029 -0.6476  0.2951
 7143WAT     H129278   4.284   5.485   5.824  0.2149 -0.3058 -0.1977
 7143WAT     H229279   4.340   5.443   5.706 -0.7364 -0.6303 -0.5433
 7143WAT    EPW29280   4.297   5.429   5.771  0.5243  0.8696  0.0800
 7144WAT      O29281   3.707   1.559   5.925  0.0162  0.0061  0.0911
 7144WAT     H129282   3.787   1.568   5.893  0.1383  1.1937  0.6566
 7144WAT     H229283   3.695   1.633   5.970 -0.4726 -1.1628  2.0058
 7144WAT    EPW29284   3.717   1.571   5.927  0.2437 -0.3173 -0.1301
 7145WAT      O29285   2.734   6.159   0.406 -0.0546  0.2083  0.4400
 7145WAT     H129286   2.745   6.106   0.338 -0.7754 -0.7350  1.0430
 7145WAT     H229287   2.810   6.201   0.411  0.3026 -0.3088 -0.4440
 7145WAT    EPW29288   2.747   6.157   0.397  0.2904 -0.3286 -0.1744
 7146WAT      O29289   4.494   6.825   0.862  0.3304 -0.0415  0.4280
 7146WAT     H129290   4.550   6.880   0.899  0.6478 -0.1032  0.0378
 7146WAT     H229291   4.448   6.874   0.807  0.6796 -0.1829  0.0075
 7146WAT    EPW29292   4.495   6.840   0.860  0.2803  0.0508  0.2734
 7147WAT      O29293   4.776   4.978   3.660  0.1617 -0.4177  0.0695
 7147WAT     H129294   4.695   4.946   3.663 -0.0235 -0.0476 -0.7734
 7147WAT     H229295   4.822   4.914   3.622  0.3458 -0.7527  0.8205
 7147WAT    EPW29296   4.771   4.964   3.655  0.2599  0.3106  0.1429
 7148WAT      O29297   4.398   2.264   3.124  0.0457  0.3993  0.7604
 7148WAT     H129298   4.404   2.184   3.158 -0.5138  0.2485  0.5082
 7148WAT     H229299   4.461   2.308   3.165  0.6319 -0.2731  0.6023
 7148WAT    EPW29300   4.409   2.259   3.135 -0.3075 -0.4945  0.2158
 7149WAT      O29301   0.614   1.283   4.925 -0.1789 -0.0427 -0.4649
 7149WAT     H129302   0.668   1.349   4.941 -1.0169  1.1228 -2.1030
 7149WAT     H229303   0.659   1.212   4.949  0.6898  1.1129  1.4560
 7149WAT    EPW29304   0.628   1.282   4.931 -0.4735 -0.3614  0.6983
 7150WAT      O29305   0.083   1.581   4.032  0.0978  0.6647 -0.3046
 7150WAT     H129306   0.066   1.510   4.080  1.6126  0.4843  0.0246
 7150WAT     H229307   0.048   1.646   4.078  0.0203  0.2992  0.1589
 7150WAT    EPW29308   0.075   1.580   4.046 -0.0347  0.3284  0.4860
 7151WAT      O29309   4.169   6.403   2.302 -0.2055  0.1418  0.2065
 7151WAT     H129310   4.207   6.361   2.368 -0.2372 -1.3942 -0.7186
 7151WAT     H229311   4.213   6.375   2.232 -0.3874  1.4872 -0.4715
 7151WAT    EPW29312   4.182   6.393   2.301 -0.4972 -0.4672 -0.2967
 7152WAT      O29313   0.964   7.577   3.129  0.1644  0.5553  0.1320
 7152WAT     H129314   0.993   7.581   3.211  0.7561 -1.3830  0.0788
 7152WAT     H229315   0.901   7.517   3.133  0.2241  0.4097 -0.8275
 7152WAT    EPW29316   0.959   7.569   3.142  0.2013 -0.4425 -0.3543
 7153WAT      O29317   2.090   5.623   1.843 -0.4693  0.6406  0.0581
 7153WAT     H129318   2.011   5.600   1.814 -0.3300 -0.6671  0.6290
 7153WAT     H229319   2.099   5.705   1.815 -1.3125  0.2435 -1.5192
 7153WAT    EPW29320   2.080   5.631   1.835 -0.7188 -0.3730 -0.0098
 7154WAT      O29321   5.762   2.822   3.286  0.0090 -0.0956  0.3018
 7154WAT     H129322   5.729   2.842   3.208  1.6647 -1.3959 -0.7885
 7154WAT     H229323   5.758   2.735   3.288  1.6038 -0.1889  0.8924
 7154WAT    EPW29324   5.756   2.812   3.275  0.4739 -0.4920  0.3478
 7155WAT      O29325   7.419   6.367   6.848  0.4441  0.3536 -0.7584
 7155WAT     H129326   7.475   6.341   6.909  1.6054  2.6324 -0.7546
 7155WAT     H229327   7.380   6.293   6.824 -0.0409 -0.7116  2.6521
 7155WAT    EPW29328   7.421   6.352   6.854 -0.0168 -0.4561  0.1906
 7156WAT      O29329   5.744   4.593   6.369  0.0815  0.4251 -0.0805
 7156WAT     H129330   5.815   4.640   6.351  1.1429 -1.4920 -1.1794
 7156WAT     H229331   5.690   4.611   6.302  0.3615  0.3224 -0.3358
 7156WAT    EPW29332   5.746   4.603   6.356 -0.2758  0.3743  0.1803
 7157WAT      O29333   0.682   7.192   4.747 -0.1995  0.0167  0.9632
 7157WAT     H129334   0.680   7.149   4.823 -1.1756  0.8774  1.4489
 7157WAT     H229335   0.757   7.236   4.751 -0.5722  0.6154  1.7726
 7157WAT    EPW29336   0.693   7.192   4.759  0.1449 -0.1170 -0.6906
 7158WAT      O29337   6.549   1.507   7.406 -0.6603 -1.1175 -0.7723
 7158WAT     H129338   6.486   1.554   7.369  0.5495  1.5488  0.3311
 7158WAT     H229339   6.610   1.500   7.343 -0.1354  0.3051 -0.4484
 7158WAT    EPW29340   6.549   1.513   7.391 -0.3442 -0.0689 -0.0659
 7159WAT      O29341   3.649   2.242   4.500 -0.2684  0.0530  0.3703
 7159WAT     H129342   3.703   2.274   4.440  0.5545 -4.3413 -1.6246
 7159WAT     H229343   3.702   2.198   4.554 -1.4622 -0.7803  0.9255
 7159WAT    EPW29344   3.665   2.240   4.499 -0.4605  0.1198  0.0630
 7160WAT      O29345   2.157   0.948   1.116  0.2338  0.7008 -0.3415
 7160WAT     H129346   2.081   0.989   1.126  0.6472  1.2810  0.5356
 7160WAT     H229347   2.134   0.866   1.097 -0.6335  0.3853  1.8437
 7160WAT    EPW29348   2.142   0.942   1.115 -0.1654  0.1121 -0.3172
 7161WAT      O29349   3.650   6.526   3.147 -0.1928  0.2046 -0.1557
 7161WAT     H129350   3.714   6.547   3.091  2.5724  0.3913  2.7987
 7161WAT     H229351   3.642   6.440   3.137  0.2412  0.2265 -0.8004
 7161WAT    EPW29352   3.658   6.516   3.137 -0.1007 -0.1177  0.7044
 7162WAT      O29353   5.541   6.419   3.838 -0.1587 -0.0077 -0.2944
 7162WAT     H129354   5.498   6.480   3.794 -1.1425 -0.4934 -0.0397
 7162WAT     H229355   5.544   6.451   3.919 -1.4975 -0.6754  0.0497
 7162WAT    EPW29356   5.535   6.433   3.843  0.3691 -0.4915  0.5211
 7163WAT      O29357   6.185   6.326   4.464  0.5003  0.6993 -0.6237
 7163WAT     H129358   6.110   6.369   4.449  1.3740  1.9446 -1.6440
 7163WAT     H229359   6.159   6.245   4.480 -1.3481  1.7412  2.6206
 7163WAT    EPW29360   6.170   6.321   4.464 -0.2238 -0.3632 -0.4520
 7164WAT      O29361   7.315   3.627   3.339  0.1786 -0.2535 -0.2032
 7164WAT     H129362   7.331   3.713   3.337  0.3820 -0.3023 -1.8266
 7164WAT     H229363   7.343   3.599   3.261 -1.7175 -1.4496 -0.5166
 7164WAT    EPW29364   7.321   3.635   3.327  0.5399  0.3026 -0.0057
 7165WAT      O29365   5.421   2.958   7.356  0.6955 -0.4727  0.6844
 7165WAT     H129366   5.371   2.950   7.427 -0.7532 -0.8295 -0.3465
 7165WAT     H229367   5.502   2.948   7.388  0.0260 -2.0010  2.1043
 7165WAT    EPW29368   5.426   2.955   7.371 -0.0768  0.0029 -0.5608
 7166WAT      O29369   0.762   1.580   4.382  0.6158  0.2167  0.1951
 7166WAT     H129370   0.707   1.643   4.410  0.1375  0.8279 -1.9291
 7166WAT     H229371   0.796   1.614   4.310  1.9699 -1.1685  0.1379
 7166WAT    EPW29372   0.759   1.595   4.376  0.2791 -0.3073  0.7267
 7167WAT      O29373   6.475   4.917   3.219  0.4581  0.6155  0.0138
 7167WAT     H129374   6.452   4.869   3.288  1.8694  1.2085  0.9462
 7167WAT     H229375   6.415   4.898   3.160 -1.5464  1.0021  1.7894
 7167WAT    EPW29376   6.463   4.907   3.221 -0.1621 -0.4326  0.4054
 7168WAT      O29377   5.356   3.914   5.951  0.5131 -0.0647  0.3314
 7168WAT     H129378   5.346   3.945   6.032 -2.3347 -2.3136  1.0136
 7168WAT     H229379   5.324   3.978   5.900  0.6838  0.6500  1.1003
 7168WAT    EPW29380   5.350   3.928   5.955 -0.2745  0.5728  0.3977
 7169WAT      O29381   1.779   5.282   6.458 -0.2218  0.2730 -0.9390
 7169WAT     H129382   1.801   5.233   6.389  1.2015  0.3367 -0.5713
 7169WAT     H229383   1.849   5.332   6.471 -1.2350  1.6765 -0.6453
 7169WAT    EPW29384   1.793   5.282   6.450  0.4437  0.4708 -0.2471
 7170WAT      O29385   4.732   3.410   6.841 -0.1320 -0.6494  0.0611
 7170WAT     H129386   4.667   3.423   6.785 -1.2634 -1.5115  1.1272
 7170WAT     H229387   4.791   3.367   6.794 -1.5824 -2.4630 -0.2123
 7170WAT    EPW29388   4.731   3.405   6.826  0.3800 -0.0311  0.1774
 7171WAT      O29389   1.988   2.293   2.925 -0.5714 -0.0883 -0.8871
 7171WAT     H129390   1.956   2.301   2.845 -1.3288  3.2348 -0.3996
 7171WAT     H229391   1.927   2.247   2.967 -2.2532  1.6155 -1.3075
 7171WAT    EPW29392   1.975   2.288   2.920 -0.3765  0.1518 -0.3601
 7172WAT      O29393   1.317   3.065   0.339 -0.0497  0.2938 -0.3900
 7172WAT     H129394   1.344   2.991   0.377  1.6506  1.0776 -0.0009
 7172WAT     H229395   1.262   3.037   0.277  1.9222 -1.4674 -1.4672
 7172WAT    EPW29396   1.312   3.050   0.335  0.5234  1.1895  0.1893
 7173WAT      O29397   4.850   5.988   4.005 -0.4797  0.0776 -0.0449
 7173WAT     H129398   4.873   6.044   4.068 -2.2182 -0.3057  0.9883
 7173WAT     H229399   4.794   6.035   3.956 -1.9475 -0.6920  0.8269
 7173WAT    EPW29400   4.845   6.003   4.007  0.3486 -0.0617  0.0300
 7174WAT      O29401   2.988   4.922   7.224 -0.1705  0.0853 -0.0617
 7174WAT     H129402   3.058   4.905   7.175  0.9542  1.0213  1.1757
 7174WAT     H229403   2.929   4.865   7.195  0.9750 -0.4793 -1.3837
 7174WAT    EPW29404   2.989   4.911   7.213 -0.0294  0.3323 -0.4026
 7175WAT      O29405   3.949   1.887   3.641  0.3541  0.1035  0.0195
 7175WAT     H129406   4.023   1.844   3.627  1.2579  1.5919  0.0080
 7175WAT     H229407   3.973   1.971   3.642 -1.2882  0.6230  0.2742
 7175WAT    EPW29408   3.963   1.893   3.639  0.1779  0.0031  0.1795
 7176WAT      O29409   4.556   2.773   5.912 -0.3599  0.4071  0.4355
 7176WAT     H129410   4.583   2.833   5.855 -0.2328 -0.4648 -0.4601
 7176WAT     H229411   4.479   2.747   5.880 -0.0187 -0.5041  0.3021
 7176WAT    EPW29412   4.549   2.778   5.899  0.3004 -0.4988 -0.6500
 7177WAT      O29413   0.256   5.021   3.059 -0.1484 -0.0833  0.3242
 7177WAT     H129414   0.267   5.005   3.144  0.9747 -0.3748  0.1333
 7177WAT     H229415   0.209   5.094   3.058 -1.3967 -0.8503  1.1886
 7177WAT    EPW29416   0.251   5.030   3.071  0.3302 -0.4115 -0.1694
 7178WAT      O29417   2.622   0.356   1.236 -0.3017 -0.2134 -0.2001
 7178WAT     H129418   2.591   0.296   1.290  0.9560 -2.4437 -1.7735
 7178WAT     H229419   2.589   0.334   1.158  1.5941  0.0142 -1.1338
 7178WAT    EPW29420   2.613   0.344   1.233 -0.2174 -0.4876 -0.2539
 7179WAT      O29421   1.208   4.767   4.161 -0.0907 -0.2198  0.4602
 7179WAT     H129422   1.213   4.854   4.164 -2.0822 -0.0795  1.2493
 7179WAT     H229423   1.208   4.743   4.245  0.2641 -0.9769  0.2571
 7179WAT    EPW29424   1.209   4.776   4.174 -0.6345  0.1045  0.0545
 7180WAT      O29425   4.229   7.144   6.568  0.3252 -0.6691 -0.5246
 7180WAT     H129426   4.230   7.231   6.563 -0.3563 -0.4613  1.6315
 7180WAT     H229427   4.146   7.125   6.585  0.3470 -1.8123 -1.6027
 7180WAT    EPW29428   4.217   7.154   6.570 -0.3354 -0.1945 -0.4881
 7181WAT      O29429   7.530   0.859   7.317  0.0454  0.0923  0.3258
 7181WAT     H129430   7.534   0.785   7.271  0.7037  0.6084 -0.4599
 7181WAT     H229431   7.587   0.847   7.382 -1.0275 -0.7150  1.1633
 7181WAT    EPW29432   7.539   0.846   7.320 -0.2242 -0.1656  0.3304
 7182WAT      O29433   6.892   3.093   6.461 -0.3113 -0.0303 -0.7274
 7182WAT     H129434   6.916   3.085   6.378 -0.9833  1.2252 -1.0695
 7182WAT     H229435   6.968   3.094   6.504  0.0903  0.2271 -1.4195
 7182WAT    EPW29436   6.907   3.092   6.455  0.6731 -0.4889 -0.4931
 7183WAT      O29437   2.920   2.535   3.071  0.7209 -0.1073 -0.3604
 7183WAT     H129438   2.958   2.457   3.068  0.1931 -0.3516 -2.7289
 7183WAT     H229439   2.867   2.530   3.140 -0.1308 -2.2765 -1.0949
 7183WAT    EPW29440   2.918   2.523   3.080 -0.5546  0.6979 -0.3522
 7184WAT      O29441   2.235   1.722   0.981 -0.0310  0.3530 -1.0841
 7184WAT     H129442   2.308   1.762   0.956  0.4228 -0.5356 -1.2417
 7184WAT     H229443   2.172   1.779   0.961  0.7168  1.9301  0.7422
 7184WAT    EPW29444   2.236   1.736   0.974 -0.0814 -0.1968 -0.0599
 7185WAT      O29445   2.626   4.394   1.578 -0.2949 -0.4354  0.4856
 7185WAT     H129446   2.649   4.421   1.658  0.2249 -0.8273  0.4709
 7185WAT     H229447   2.542   4.369   1.588 -0.8544  1.3141  0.4615
 7185WAT    EPW29448   2.617   4.394   1.591  0.7490 -0.0393 -0.2842
 7186WAT      O29449   7.388   3.124   7.414  0.2757  0.1704  0.5615
 7186WAT     H129450   7.369   3.082   7.488 -1.5481  0.0657  0.0808
 7186WAT     H229451   7.430   3.196   7.442  0.5705 -0.3900  1.6033
 7186WAT    EPW29452   7.391   3.129   7.429  0.3490  0.3675  0.0149
 7187WAT      O29453   4.342   3.451   0.029 -0.4968 -0.0060 -0.5441
 7187WAT     H129454   4.268   3.432  -0.014 -0.6977 -1.7020  0.4205
 7187WAT     H229455   4.327   3.418   0.109  0.8324  0.7553  0.0465
 7187WAT    EPW29456   4.329   3.443   0.035  0.4191 -0.5235  0.0314
 7188WAT      O29457   2.271   5.455   7.382  0.3474  0.2120 -0.1218
 7188WAT     H129458   2.236   5.466   7.303 -0.7329  0.2941  0.3630
 7188WAT     H229459   2.356   5.444   7.365  0.2265  0.8873 -1.2423
 7188WAT    EPW29460   2.279   5.455   7.368 -0.6885 -0.1660  0.1666
 7189WAT      O29461   5.603   4.940   3.141 -0.0513 -0.4417 -0.4721
 7189WAT     H129462   5.603   4.994   3.209 -0.7887  1.0060 -1.5825
 7189WAT     H229463   5.677   4.894   3.151 -0.0893 -0.1768  1.2174
 7189WAT    EPW29464   5.614   4.941   3.153  0.3514 -0.5213  0.1570
 7190WAT      O29465   1.701   3.842   0.940  0.0802  0.0795 -0.9483
 7190WAT     H129466   1.631   3.796   0.963  0.4534 -0.5238 -0.9870
 7190WAT     H229467   1.743   3.854   1.015 -1.4420  2.8837 -0.4365
 7190WAT    EPW29468   1.697   3.837   0.954 -0.2083 -0.3354  0.1553
 7191WAT      O29469   7.301   1.940   2.585  0.1979  0.3695  0.2663
 7191WAT     H129470   7.281   1.970   2.664  1.5802  0.5695  0.5742
 7191WAT     H229471   7.229   1.898   2.559 -0.4779  0.8239  1.3705
 7191WAT    EPW29472   7.288   1.938   2.593 -0.0719  0.1210 -0.0339
 7192WAT      O29473   3.242   2.639   5.677  0.2655  0.1009  0.7697
 7192WAT     H129474   3.300   2.640   5.742 -0.2893 -0.9696  1.2975
 7192WAT     H229475   3.167   2.661   5.715  0.0953  0.3203  0.3194
 7192WAT    EPW29476   3.239   2.642   5.692 -0.0259 -0.3492  0.7281
 7193WAT      O29477   0.814   4.324   6.600  0.5327 -0.1200 -0.2112
 7193WAT     H129478   0.810   4.403   6.562 -1.4092  0.0947  0.3208
 7193WAT     H229479   0.749   4.280   6.562  0.4902 -0.8905  0.7230
 7193WAT    EPW29480   0.803   4.329   6.589 -0.8452 -0.2033  0.0256
 7194WAT      O29481   1.697   5.214   2.003 -0.7958 -0.0899 -0.3989
 7194WAT     H129482   1.653   5.147   2.037 -0.5261  0.2271  0.6125
 7194WAT     H229483   1.636   5.275   1.990 -0.4869  1.0847  2.8340
 7194WAT    EPW29484   1.682   5.213   2.006  0.2917  0.5039 -0.1064
 7195WAT      O29485   1.757   3.200   2.374 -0.4112  0.3844 -0.4587
 7195WAT     H129486   1.737   3.239   2.299  0.8854  2.8865  0.3978
 7195WAT     H229487   1.681   3.165   2.399 -1.7112  2.3697 -1.3458
 7195WAT    EPW29488   1.743   3.201   2.367  0.5524 -0.6207  0.0959
 7196WAT      O29489   6.550   5.487   5.185  0.2264  0.0394  0.4014
 7196WAT     H129490   6.491   5.545   5.156 -1.4724 -0.6100  2.2953
 7196WAT     H229491   6.546   5.423   5.125  0.0585  0.6253 -0.2303
 7196WAT    EPW29492   6.541   5.486   5.172 -0.6550  0.4542  0.1405
 7197WAT      O29493   3.139   2.772   1.190  0.2276  0.4594  0.1094
 7197WAT     H129494   3.144   2.813   1.113 -1.7643 -1.1811 -1.0104
 7197WAT     H229495   3.118   2.690   1.168 -0.1096 -0.1396  2.4064
 7197WAT    EPW29496   3.137   2.766   1.175  0.3097 -0.1535  0.1396
 7198WAT      O29497   3.428   0.414   1.385 -0.2270 -0.3465  0.1765
 7198WAT     H129498   3.416   0.361   1.454  0.6366 -0.3144  0.3649
 7198WAT     H229499   3.351   0.452   1.376 -0.3791 -0.3880  1.1114
 7198WAT    EPW29500   3.415   0.412   1.394 -0.4904  0.1881 -0.2402
 7199WAT      O29501   6.146   6.744   0.761  0.5730  0.6737 -0.3974
 7199WAT     H129502   6.124   6.711   0.683  2.0558 -1.7717  0.1115
 7199WAT     H229503   6.079   6.721   0.812 -0.3670  2.2169 -0.8870
 7199WAT    EPW29504   6.133   6.736   0.757  0.3075 -0.4287  0.3295
 7200WAT      O29505   3.049   4.875   6.086  0.3031 -0.0512 -0.2969
 7200WAT     H129506   3.095   4.824   6.032  0.2203  0.3889 -0.7840
 7200WAT     H229507   2.970   4.839   6.086 -0.4201  1.3585 -2.4432
 7200WAT    EPW29508   3.044   4.862   6.078 -0.2682 -0.5316 -0.0331
 7201WAT      O29509   0.219   4.179   6.110  0.4566  0.0277  0.0144
 7201WAT     H129510   0.188   4.164   6.030  0.2336  1.0788 -0.0999
 7201WAT     H229511   0.183   4.115   6.158  2.4346 -2.0818 -1.1193
 7201WAT    EPW29512   0.209   4.167   6.105  0.1426 -0.3829  0.4242
 7202WAT      O29513   1.857   2.310   2.702 -0.0813 -0.4410 -0.0692
 7202WAT     H129514   1.875   2.345   2.624 -2.5104  0.6926 -0.2433
 7202WAT     H229515   1.769   2.309   2.704 -0.1731  0.6392  3.0573
 7202WAT    EPW29516   1.846   2.315   2.691 -0.7160  0.2705 -0.2114
 7203WAT      O29517   4.327   2.676   2.200  0.2916  0.0356  0.3378
 7203WAT     H129518   4.322   2.703   2.118 -1.1616  0.1672  0.4378
 7203WAT     H229519   4.361   2.596   2.194 -3.9078 -1.9825 -0.9704
 7203WAT    EPW29520   4.331   2.668   2.187 -0.1459 -0.5560 -0.4412
 7204WAT      O29521   0.054   1.666   5.038 -0.2124 -0.0212 -0.4113
 7204WAT     H129522   0.098   1.742   5.040  0.9988 -0.7189  0.2007
 7204WAT     H229523   0.048   1.644   5.122  0.6063 -1.2301 -0.6471
 7204WAT    EPW29524   0.060   1.674   5.051 -0.0396 -0.6043  0.2958
 7205WAT      O29525   0.585   6.458   6.815  0.0485 -0.0991 -0.8218
 7205WAT     H129526   0.627   6.531   6.838 -2.4936  0.9281  1.1281
 7205WAT     H229527   0.533   6.443   6.884 -1.4032 -2.2628 -2.2829
 7205WAT    EPW29528   0.583   6.467   6.829  0.2385  0.4667 -0.8066
 7206WAT      O29529   1.309   2.919   5.015  0.2449 -0.3416  0.0062
 7206WAT     H129530   1.249   2.862   4.989 -0.1459  0.0627 -0.0110
 7206WAT     H229531   1.303   2.984   4.956  0.2376 -0.0010  0.3727
 7206WAT    EPW29532   1.299   2.920   5.003  0.0312  0.1830  0.5813
 7207WAT      O29533   5.775   3.774   0.735 -0.7114 -0.1984  0.1132
 7207WAT     H129534   5.811   3.805   0.661  0.3273 -0.7429  0.3831
 7207WAT     H229535   5.692   3.758   0.711 -0.0593 -1.6801 -1.3400
 7207WAT    EPW29536   5.768   3.776   0.720 -0.5402 -0.0886  0.3917
 7208WAT      O29537   0.036   4.491   3.439 -0.4174 -0.2084  0.5691
 7208WAT     H129538   0.046   4.444   3.511 -0.1358 -1.2723 -0.1331
 7208WAT     H229539   0.040   4.574   3.467 -1.6674 -0.5732  1.9446
 7208WAT    EPW29540   0.038   4.496   3.454  1.4850  0.3846 -0.4774
 7209WAT      O29541   4.303   4.205   5.243 -0.0329  0.2482  0.2982
 7209WAT     H129542   4.273   4.286   5.234 -0.6401 -0.1029 -0.9230
 7209WAT     H229543   4.389   4.216   5.252  0.0849  0.9515 -1.4096
 7209WAT    EPW29544   4.311   4.218   5.243  0.5749  0.1385  0.0649
 7210WAT      O29545   6.164   1.866   4.208 -0.5898 -0.3133 -0.7926
 7210WAT     H129546   6.194   1.942   4.238 -1.5765  0.0423 -0.6488
 7210WAT     H229547   6.131   1.886   4.129 -0.2299 -0.7341 -1.0514
 7210WAT    EPW29548   6.163   1.880   4.201  0.2824 -0.9982 -0.1692
 7211WAT      O29549   4.243   3.934   4.011  0.1937 -0.0215 -0.2941
 7211WAT     H129550   4.249   3.952   4.096  1.9058  0.4750 -0.4854
 7211WAT     H229551   4.176   3.878   4.006 -1.6585  1.9360  1.0211
 7211WAT    EPW29552   4.234   3.929   4.022 -0.4466  0.1097  0.1412
 7212WAT      O29553   3.363   3.386   6.116 -0.0599 -0.7014 -0.2556
 7212WAT     H129554   3.445   3.368   6.140 -0.9033 -1.9592  1.9568
 7212WAT     H229555   3.319   3.314   6.139 -1.8684  0.1020 -1.0473
 7212WAT    EPW29556   3.369   3.372   6.123  0.1853  0.0520  0.0999
 7213WAT      O29557   5.429   3.110   6.918 -0.3080 -0.4109 -0.4162
 7213WAT     H129558   5.498   3.144   6.877 -0.5571 -0.1387 -0.6160
 7213WAT     H229559   5.427   3.155   6.994 -0.1607 -0.5457 -0.3310
 7213WAT    EPW29560   5.439   3.122   6.923  0.4321 -0.3965  0.2486
 7214WAT      O29561   3.019   5.302   1.850 -0.3735 -0.1977 -0.3765
 7214WAT     H129562   3.090   5.323   1.804  1.0150 -2.0070  0.7895
 7214WAT     H229563   3.012   5.366   1.908  0.5194 -0.1367 -0.3151
 7214WAT    EPW29564   3.029   5.314   1.852  0.2988  0.6645  0.1426
 7215WAT      O29565   0.096   6.937   1.107 -0.0500  0.0919  0.2686
 7215WAT     H129566   0.044   6.884   1.060  0.4140  0.5262 -0.7775
 7215WAT     H229567   0.063   6.933   1.187  0.4804 -2.4622  0.4358
 7215WAT    EPW29568   0.083   6.929   1.112  0.5025 -0.0821  0.2311
 7216WAT      O29569   4.170   5.922   1.566  0.5256  0.4629 -0.5108
 7216WAT     H129570   4.128   5.856   1.603  1.1001 -1.3647 -2.8960
 7216WAT     H229571   4.114   5.950   1.504  0.8314  1.3270 -0.4129
 7216WAT    EPW29572   4.156   5.917   1.562 -0.4794 -0.4286  0.5686
 7217WAT      O29573   6.920   2.560   2.666  0.4658  0.3300 -0.7725
 7217WAT     H129574   6.978   2.529   2.609 -0.1918 -2.8233  0.0411
 7217WAT     H229575   6.961   2.554   2.743  0.4245  2.0310 -0.5754
 7217WAT    EPW29576   6.935   2.554   2.669  0.5768 -0.1653 -0.0598
 7218WAT      O29577   7.364   5.629   6.507 -0.3372 -0.5217  0.2410
 7218WAT     H129578   7.347   5.667   6.430  2.0759  2.9078  1.1616
 7218WAT     H229579   7.448   5.605   6.500  0.0701  0.2657  1.8781
 7218WAT    EPW29580   7.374   5.631   6.495 -0.6996 -0.4200 -0.4190
 7219WAT      O29581   7.148   2.457   0.082 -0.4934 -0.0188  0.5398
 7219WAT     H129582   7.194   2.470   0.009 -3.6759 -2.5379 -2.2660
 7219WAT     H229583   7.201   2.410   0.132  0.9014 -0.6237 -1.3877
 7219WAT    EPW29584   7.162   2.452   0.078 -0.3562 -0.1297  0.4833
 7220WAT      O29585   4.401   0.884   0.520 -0.0624 -1.5004 -0.1473
 7220WAT     H129586   4.372   0.802   0.532  0.9563 -1.9289 -0.4796
 7220WAT     H229587   4.431   0.883   0.438  0.0414 -0.8133 -0.1228
 7220WAT    EPW29588   4.401   0.872   0.510 -0.1575 -0.0857  0.3192
 7221WAT      O29589   0.818   1.120   1.411  0.2929 -0.7267  0.4106
 7221WAT     H129590   0.799   1.076   1.338  1.0144  1.0211 -0.9100
 7221WAT     H229591   0.799   1.064   1.475 -0.5865 -2.2372 -1.1086
 7221WAT    EPW29592   0.813   1.105   1.410  0.3129  0.5836  0.0042
 7222WAT      O29593   1.467   3.437   6.366 -0.0106  0.5772  0.7169
 7222WAT     H129594   1.429   3.448   6.444 -1.0383  0.7003  0.2100
 7222WAT     H229595   1.524   3.503   6.361 -1.8541  2.2517  0.2474
 7222WAT    EPW29596   1.470   3.448   6.377  0.0949 -0.1345 -0.0978
 7223WAT      O29597   1.154   6.011   3.094 -0.3731 -0.4629 -0.1952
 7223WAT     H129598   1.083   6.053   3.123 -0.2552 -1.0108  0.9529
 7223WAT     H229599   1.213   6.027   3.156  0.0579 -1.2168 -0.4014
 7223WAT    EPW29600   1.152   6.019   3.107  0.2534  0.4368  0.3605
 7224WAT      O29601   6.342   3.230   1.226 -0.1949  0.1200  0.3168
 7224WAT     H129602   6.314   3.311   1.241  1.1159  0.7705 -0.5197
 7224WAT     H229603   6.291   3.180   1.276 -0.3157  1.5520  1.6954
 7224WAT    EPW29604   6.331   3.235   1.235 -0.5290  0.3956 -0.3259
 7225WAT      O29605   7.300   0.397   0.401  0.5467  0.3084 -0.1047
 7225WAT     H129606   7.286   0.324   0.355 -0.0304  0.5176 -0.2661
 7225WAT     H229607   7.299   0.460   0.341  2.0485  0.3633 -0.0999
 7225WAT    EPW29608   7.297   0.395   0.385 -0.4878  0.1305  0.1517
 7226WAT      O29609   2.416   2.777   4.425  0.2257  0.4289  0.4756
 7226WAT     H129610   2.368   2.784   4.497  0.4907  1.3971  0.5670
 7226WAT     H229611   2.455   2.855   4.418 -0.9194  0.8883 -1.5162
 7226WAT    EPW29612   2.415   2.789   4.434 -0.3994  0.2000  0.0300
 7227WAT      O29613   3.194   4.131   7.236 -0.4807 -0.4281 -0.5288
 7227WAT     H129614   3.258   4.103   7.184  0.1562 -1.3536  0.6779
 7227WAT     H229615   3.131   4.071   7.226 -1.3957  0.7382 -2.0756
 7227WAT    EPW29616   3.194   4.118   7.227  0.5997  0.5467  0.1448
 7228WAT      O29617   2.170   1.668   3.917  0.0848 -0.7134 -0.0701
 7228WAT     H129618   2.113   1.604   3.903  0.2187 -0.3023 -3.0145
 7228WAT     H229619   2.120   1.739   3.929 -0.0339 -0.6919 -0.6971
 7228WAT    EPW29620   2.154   1.669   3.917 -0.6629 -0.0723 -0.1894
 7229WAT      O29621   1.577   0.261   2.879 -0.2160  0.8342  0.0870
 7229WAT     H129622   1.571   0.346   2.860 -0.6193  0.7294 -0.2847
 7229WAT     H229623   1.545   0.256   2.960  1.6177  1.3024  0.8916
 7229WAT    EPW29624   1.571   0.272   2.888  0.2876 -0.0845  0.1414
 7230WAT      O29625   6.146   5.097   3.470 -0.2279  0.0478  0.6841
 7230WAT     H129626   6.209   5.157   3.463 -0.3908  0.0550 -1.1466
 7230WAT     H229627   6.127   5.078   3.387  0.5670 -3.3678  1.1473
 7230WAT    EPW29628   6.152   5.103   3.457  0.1187  0.3536  0.1491
 7231WAT      O29629   6.368   5.597   5.600  0.2340 -0.0605 -0.1848
 7231WAT     H129630   6.422   5.666   5.597  0.6106 -0.3906 -1.4418
 7231WAT     H229631   6.358   5.575   5.516 -2.5252  0.4950 -0.1171
 7231WAT    EPW29632   6.374   5.604   5.587  0.8933 -0.1204 -0.3596
 7232WAT      O29633   0.193   5.996   2.988  0.0768 -0.1300  0.1169
 7232WAT     H129634   0.278   6.017   2.986 -0.1325  0.8592 -2.4063
 7232WAT     H229635   0.164   6.023   2.910 -2.6297 -0.2091  1.0088
 7232WAT    EPW29636   0.201   6.003   2.976  0.0374  0.1881  0.2202
 7233WAT      O29637   2.657   5.178   7.032  0.3282 -0.1147  0.2508
 7233WAT     H129638   2.575   5.176   7.004  0.7650  1.4973 -1.2926
 7233WAT     H229639   2.698   5.119   6.983 -0.0125 -1.5089  1.5699
 7233WAT    EPW29640   2.651   5.169   7.021 -0.0137 -0.9120 -0.3413
 7234WAT      O29641   1.061   5.744   0.742 -0.5087 -0.1884  0.0388
 7234WAT     H129642   1.084   5.822   0.709  0.6638  0.3828  2.0855
 7234WAT     H229643   1.131   5.694   0.728 -1.7979 -1.4819 -2.7099
 7234WAT    EPW29644   1.075   5.748   0.735 -0.4112 -0.4017  0.2571
 7235WAT      O29645   4.589   1.709   6.198  0.4303  0.3038 -0.2586
 7235WAT     H129646   4.502   1.713   6.203  0.3074 -0.2163 -1.4299
 7235WAT     H229647   4.604   1.701   6.112  1.7419  2.4602 -0.2947
 7235WAT    EPW29648   4.578   1.708   6.186  0.3581  0.0748 -0.2714
 7236WAT      O29649   2.025   6.618   0.565  0.1348 -0.4082  0.2777
 7236WAT     H129650   2.067   6.629   0.641  0.3100  0.7745  0.0270
 7236WAT     H229651   1.986   6.694   0.552  2.0304  0.2834 -1.9752
 7236WAT    EPW29652   2.026   6.631   0.574  0.1760  0.7053  0.1363
 7237WAT      O29653   1.267   5.283   1.030  0.2702  0.3282 -0.4698
 7237WAT     H129654   1.273   5.313   0.949 -1.2965 -0.8767 -1.0815
 7237WAT     H229655   1.319   5.337   1.076  2.4587  0.1017 -2.4719
 7237WAT    EPW29656   1.276   5.296   1.025 -0.5241 -0.3004  0.3536
 7238WAT      O29657   5.183   2.626   2.082 -0.2204  0.5319  0.0187
 7238WAT     H129658   5.116   2.674   2.112 -0.3455  0.8582 -0.7555
 7238WAT     H229659   5.216   2.590   2.154 -1.2511  0.3362  0.4182
 7238WAT    EPW29660   5.178   2.628   2.097  0.0940  0.2428  0.2774
 7239WAT      O29661   6.598   2.301   5.146 -0.4425  0.7119 -0.5737
 7239WAT     H129662   6.612   2.269   5.066  0.0255  1.5402 -0.8382
 7239WAT     H229663   6.640   2.245   5.198 -1.2123 -0.1378 -0.8501
 7239WAT    EPW29664   6.606   2.288   5.142 -0.1633  0.4035  0.4000
 7240WAT      O29665   3.391   0.801   4.052  0.1101 -0.6341  0.3655
 7240WAT     H129666   3.310   0.831   4.059  0.2416  0.0922 -0.8432
 7240WAT     H229667   3.396   0.738   4.111 -0.4768  1.1047  2.3765
 7240WAT    EPW29668   3.380   0.796   4.062  0.8382 -0.0571  0.2094
 7241WAT      O29669   6.742   5.891   0.145  0.0517  0.5087 -0.1307
 7241WAT     H129670   6.790   5.893   0.073  0.5763  0.4684  0.2074
 7241WAT     H229671   6.664   5.863   0.118  0.5332 -0.5157 -0.5292
 7241WAT    EPW29672   6.738   5.887   0.131  0.2208  0.6986  0.6354
 7242WAT      O29673   0.873   6.209   6.622  0.6124  0.1958  0.9268
 7242WAT     H129674   0.831   6.133   6.626 -0.1109  0.6066  1.3401
 7242WAT     H229675   0.954   6.189   6.648  0.5886 -0.5342  0.4797
 7242WAT    EPW29676   0.879   6.195   6.626  0.0992 -0.6707  0.4689
 7243WAT      O29677   1.837   4.194   7.429 -0.0106  0.5410  0.8206
 7243WAT     H129678   1.818   4.195   7.344  0.8915  2.1136  0.5991
 7243WAT     H229679   1.924   4.186   7.431 -0.0558  0.0883  1.6170
 7243WAT    EPW29680   1.847   4.193   7.417  0.2396 -0.2523 -0.3396
 7244WAT      O29681   7.544   6.453   7.485  0.3019 -0.4545 -0.2016
 7244WAT     H129682   7.497   6.487   7.420  0.2601  0.0281  0.0731
 7244WAT     H229683   7.607   6.409   7.445 -0.3070 -1.0037 -0.5773
 7244WAT    EPW29684   7.546   6.452   7.470 -0.6594 -0.0145  0.3489
 7245WAT      O29685   6.095   2.664   2.229 -0.6489 -0.0003 -0.5224
 7245WAT     H129686   6.154   2.673   2.166  2.8242  0.2918  2.4246
 7245WAT     H229687   6.081   2.745   2.257  0.7714 -0.3184  1.3301
 7245WAT    EPW29688   6.102   2.677   2.224 -0.5368  0.2655  0.2062
 7246WAT      O29689   3.745   2.316   1.775  0.3073  0.1040 -0.0006
 7246WAT     H129690   3.769   2.334   1.693  1.8859  0.6112  0.5530
 7246WAT     H229691   3.808   2.264   1.804 -1.0175 -1.3474  0.4380
 7246WAT    EPW29692   3.758   2.311   1.767  0.0838  0.3312  0.5181
 7247WAT      O29693   0.251   5.586   0.307 -0.0591 -0.9242 -0.1490
 7247WAT     H129694   0.178   5.544   0.330  0.4733 -2.3905 -0.9486
 7247WAT     H229695   0.280   5.540   0.238  1.4565 -0.2119 -0.0372
 7247WAT    EPW29696   0.245   5.573   0.300 -0.9147 -0.6065 -0.0862
 7248WAT      O29697   5.164   3.679   5.999 -0.5373 -0.5236 -0.1088
 7248WAT     H129698   5.201   3.757   5.988 -2.5848  1.0454  2.6839
 7248WAT     H229699   5.227   3.630   6.035  0.4136  0.2339 -0.7230
 7248WAT    EPW29700   5.179   3.683   6.003 -0.0461  0.1464  0.7759
 7249WAT      O29701   0.872   5.982   6.083 -0.2517  0.0958 -0.0583
 7249WAT     H129702   0.939   6.030   6.110  0.2528 -0.8368  0.4058
 7249WAT     H229703   0.807   6.004   6.138 -0.2767  0.8372 -0.3726
 7249WAT    EPW29704   0.872   5.992   6.095  0.4801 -0.0221 -0.1419
 7250WAT      O29705   4.522   4.222   6.397 -0.0515  0.2619  0.8346
 7250WAT     H129706   4.450   4.260   6.365 -0.5494  0.6007  2.2552
 7250WAT     H229707   4.563   4.288   6.437 -0.0968 -0.3453  1.9286
 7250WAT    EPW29708   4.517   4.238   6.398 -0.2294 -0.0748  0.8293
 7251WAT      O29709   2.745   3.247   3.137 -0.4270 -0.1009 -0.1992
 7251WAT     H129710   2.744   3.254   3.224  0.2965  0.5222 -0.2414
 7251WAT     H229711   2.828   3.262   3.115 -0.4698 -0.8813 -0.9534
 7251WAT    EPW29712   2.757   3.250   3.146  0.0525 -0.3172 -0.0777
 7252WAT      O29713   5.905   7.178   5.041  0.1592 -0.1529  0.3960
 7252WAT     H129714   5.884   7.190   4.957 -0.5331  1.0858  0.7387
 7252WAT     H229715   5.893   7.256   5.078  2.3015 -0.1624  1.2847
 7252WAT    EPW29716   5.900   7.191   5.034  0.0144  0.3674  0.0100
 7253WAT      O29717   4.838   3.277   4.072  0.1714  0.1931  0.3301
 7253WAT     H129718   4.810   3.200   4.102  1.2475  0.2981  1.6978
 7253WAT     H229719   4.774   3.303   4.019  0.0386 -1.9105 -0.6496
 7253WAT    EPW29720   4.825   3.270   4.068 -0.5006 -0.4789  0.3116
 7254WAT      O29721   4.659   2.024   5.788 -0.2429  0.2921 -0.0606
 7254WAT     H129722   4.735   1.989   5.812 -0.2807  0.8393  0.9132
 7254WAT     H229723   4.682   2.091   5.738 -0.0767  0.4810  0.2665
 7254WAT    EPW29724   4.673   2.029   5.784  0.5434  0.4624 -0.1219
 7255WAT      O29725   0.817   1.342   3.405  0.5450  0.3703  0.8273
 7255WAT     H129726   0.834   1.307   3.328  0.1812 -1.0926  1.3794
 7255WAT     H229727   0.738   1.310   3.425  1.4213 -0.8218  2.6312
 7255WAT    EPW29728   0.808   1.332   3.397 -0.4225 -0.2085  0.5449
 7256WAT      O29729   1.823   2.496   4.456 -0.3092  0.1161  0.0020
 7256WAT     H129730   1.823   2.567   4.405 -0.4539  1.2978  1.5698
 7256WAT     H229731   1.738   2.482   4.472 -0.2074  1.6289  2.3132
 7256WAT    EPW29732   1.811   2.504   4.451  0.1478  0.2866 -0.5837
 7257WAT      O29733   5.490   3.564   2.147  0.6659 -0.4091  0.1033
 7257WAT     H129734   5.508   3.544   2.064  0.2355 -0.0114 -0.0901
 7257WAT     H229735   5.403   3.572   2.147  0.7983  1.3835  0.1807
 7257WAT    EPW29736   5.480   3.562   2.135 -0.5331  0.0678  1.0555
 7258WAT      O29737   0.906   5.496   1.997  0.3793  0.7968 -0.0628
 7258WAT     H129738   0.946   5.437   1.946 -0.1006  0.5988 -0.2233
 7258WAT     H229739   0.923   5.572   1.958 -1.0080  0.5463 -1.2477
 7258WAT    EPW29740   0.914   5.498   1.984 -0.0471  0.2910  0.1269
 7259WAT      O29741   4.152   6.921   2.837 -0.1789 -0.0298  0.5036
 7259WAT     H129742   4.083   6.935   2.887  0.2309 -1.3550  1.4942
 7259WAT     H229743   4.219   6.926   2.893  0.2433 -2.1465  0.2582
 7259WAT    EPW29744   4.152   6.924   2.853 -0.2630 -0.5936  0.2091
 7260WAT      O29745   7.206   3.572   2.375 -0.5311  0.0670  0.0741
 7260WAT     H129746   7.228   3.583   2.291 -3.8220  1.0525 -0.8148
 7260WAT     H229747   7.254   3.631   2.417 -0.6787  1.3944 -1.5222
 7260WAT    EPW29748   7.216   3.583   2.369 -0.0213 -0.9069 -0.1982
 7261WAT      O29749   2.631   4.196   6.737  0.0768 -0.0616  1.0136
 7261WAT     H129750   2.708   4.224   6.705  1.2774 -2.0155  1.9451
 7261WAT     H229751   2.619   4.244   6.808  0.3741  0.3256  0.8083
 7261WAT    EPW29752   2.641   4.207   6.743 -0.2393  0.0798  0.1597
 7262WAT      O29753   3.778   0.855   5.433  0.5085  0.2424  0.1265
 7262WAT     H129754   3.761   0.808   5.504  3.4111 -0.9383  0.2000
 7262WAT     H229755   3.746   0.807   5.368 -0.7271  0.5409  0.4902
 7262WAT    EPW29756   3.771   0.841   5.434 -0.4838 -0.0221  0.1882
 7263WAT      O29757   3.349   3.180   1.201  0.6558  0.1376 -0.0846
 7263WAT     H129758   3.274   3.148   1.171  0.7753  0.2725 -0.5448
 7263WAT     H229759   3.348   3.263   1.175  1.9684 -0.4162 -2.1313
 7263WAT    EPW29760   3.338   3.188   1.193  0.4437 -0.1454 -0.3970
 7264WAT      O29761   1.747   6.517   0.747 -0.3866  0.0019 -0.0273
 7264WAT     H129762   1.789   6.446   0.720  1.0094  0.0330  1.8586
 7264WAT     H229763   1.802   6.582   0.728 -0.5882  0.3080  0.4084
 7264WAT    EPW29764   1.761   6.516   0.740  0.3388 -0.1018  0.0592
 7265WAT      O29765   5.576   1.613   5.696  0.4623  0.1037  0.3300
 7265WAT     H129766   5.563   1.656   5.772  1.6017 -1.6680  1.5999
 7265WAT     H229767   5.573   1.676   5.636  3.0116  2.2065  2.1675
 7265WAT    EPW29768   5.574   1.629   5.699  0.5773 -0.1956  0.2466
 7266WAT      O29769   4.985   5.019   0.146  0.5164  0.7844 -0.2423
 7266WAT     H129770   4.911   5.041   0.106 -0.9042 -0.8085  1.3435
 7266WAT     H229771   4.996   4.935   0.124  2.6727  1.3424 -1.5762
 7266WAT    EPW29772   4.976   5.010   0.137  0.6766 -0.2143 -0.1104
 7267WAT      O29773   7.073   4.290   3.871  0.2331  0.1747 -0.0552
 7267WAT     H129774   7.093   4.206   3.887 -0.0886 -0.0983 -0.9917
 7267WAT     H229775   6.988   4.288   3.853  0.0919  0.8043  0.5072
 7267WAT    EPW29776   7.063   4.277   3.870 -0.0335 -0.2215  0.3625
 7268WAT      O29777   4.833   3.549   2.197 -0.1579 -0.1098  0.4314
 7268WAT     H129778   4.757   3.508   2.181  0.5932 -1.3924 -0.0281
 7268WAT     H229779   4.822   3.628   2.161 -1.1747 -0.3668  0.1320
 7268WAT    EPW29780   4.820   3.554   2.189 -0.4587 -0.2290  0.1986
 7269WAT      O29781   0.072   5.896   1.791  0.2194  0.1760 -0.0351
 7269WAT     H129782   0.075   5.842   1.859 -0.1687 -1.6435 -1.3840
 7269WAT     H229783   0.156   5.907   1.770  0.2918 -0.2411  0.0176
 7269WAT    EPW29784   0.084   5.889   1.798 -0.6828  0.1154  0.0748
 7270WAT      O29785   4.512   4.873   3.598 -0.0918  0.0032 -0.5770
 7270WAT     H129786   4.454   4.878   3.663 -0.2050  0.2082 -0.6929
 7270WAT     H229787   4.464   4.851   3.529 -0.0439  0.2392 -0.6871
 7270WAT    EPW29788   4.496   4.871   3.598  0.4081  0.3527  0.1864
 7271WAT      O29789   7.155   1.486   2.121  0.0937  0.2061 -0.5933
 7271WAT     H129790   7.164   1.532   2.194 -0.9899 -0.5635  0.0436
 7271WAT     H229791   7.234   1.492   2.083  0.3364  1.5467  0.0587
 7271WAT    EPW29792   7.168   1.494   2.126  0.7914 -0.4779 -0.4656
 7272WAT      O29793   3.442   1.166   2.366 -0.6624 -0.2991 -0.0175
 7272WAT     H129794   3.476   1.225   2.421 -0.2438 -0.9808  0.4597
 7272WAT     H229795   3.472   1.192   2.288 -1.4289  0.7951  0.0202
 7272WAT    EPW29796   3.452   1.179   2.363 -0.4913 -1.0152  0.4110
 7273WAT      O29797   7.059   6.203   0.982 -0.2312 -0.5274  0.1506
 7273WAT     H129798   7.099   6.254   1.041  1.1871  0.5406 -1.6190
 7273WAT     H229799   6.979   6.192   1.015  0.3646  0.3949  2.0326
 7273WAT    EPW29800   7.053   6.209   0.995 -0.2968  0.2648 -0.0060
 7274WAT      O29801   1.113   1.982   0.837 -0.0860 -0.1669 -0.1994
 7274WAT     H129802   1.069   1.952   0.906  0.8112 -2.0264 -0.3824
 7274WAT     H229803   1.186   1.935   0.837 -0.2002 -0.4805 -2.6128
 7274WAT    EPW29804   1.117   1.971   0.847 -0.3987 -0.0172 -0.8167
 7275WAT      O29805   1.615   2.737   6.257 -0.0498 -0.1501  0.8313
 7275WAT     H129806   1.670   2.731   6.324 -0.3055 -1.6722  0.9349
 7275WAT     H229807   1.540   2.765   6.293  0.2247  0.4835  0.9228
 7275WAT    EPW29808   1.612   2.740   6.272 -0.2631  0.5036  0.7569
 7276WAT      O29809   4.462   7.158   4.415 -0.3925 -0.8587  0.0046
 7276WAT     H129810   4.396   7.215   4.416  1.1547  1.0561 -0.2383
 7276WAT     H229811   4.494   7.162   4.496  0.3781 -0.5485 -0.3035
 7276WAT    EPW29812   4.457   7.167   4.427  0.0204  0.1704  0.8251
 7277WAT      O29813   1.837   2.198   2.052 -0.5852 -0.1868 -0.4555
 7277WAT     H129814   1.865   2.279   2.069  0.8041 -0.7012 -0.1560
 7277WAT     H229815   1.906   2.148   2.073 -0.5537 -1.2716 -2.8448
 7277WAT    EPW29816   1.852   2.202   2.058  0.2390 -0.0335  0.4221
 7278WAT      O29817   2.547   3.962   3.687  0.0622 -0.0415 -0.4495
 7278WAT     H129818   2.630   3.939   3.698  0.5527  1.2790 -1.1668
 7278WAT     H229819   2.549   4.016   3.618 -1.9461 -3.2425 -3.4260
 7278WAT    EPW29820   2.559   3.966   3.678 -0.4992 -0.0982  0.0784
 7279WAT      O29821   4.681   6.629   1.825 -0.2148 -0.0799 -0.3490
 7279WAT     H129822   4.702   6.558   1.870  0.0794 -0.5046 -1.1377
 7279WAT     H229823   4.638   6.678   1.883 -2.0415 -1.6690 -0.2821
 7279WAT    EPW29824   4.678   6.626   1.840  0.4500  1.1607 -0.0700
 7280WAT      O29825   0.212   3.807   6.515 -0.6225  0.3202 -0.2655
 7280WAT     H129826   0.230   3.819   6.430  0.3062  0.1753 -0.0975
 7280WAT     H229827   0.128   3.782   6.514  0.2568 -3.2056 -1.4764
 7280WAT    EPW29828   0.202   3.805   6.502  0.5230 -0.2578 -0.3182
 7281WAT      O29829   7.619   3.669   7.066  0.3582 -0.0935 -0.6042
 7281WAT     H129830   7.580   3.592   7.078  2.0887 -1.3909 -2.4715
 7281WAT     H229831   7.678   3.672   7.130  0.2825 -0.3284 -0.5231
 7281WAT    EPW29832   7.622   3.658   7.077 -0.1022 -0.2917  0.0030
 7282WAT      O29833   1.062   7.237   2.337  0.3209 -0.5709 -0.6820
 7282WAT     H129834   1.017   7.276   2.401 -0.6454 -0.5957 -1.3209
 7282WAT     H229835   1.045   7.152   2.349 -0.9292 -0.4997 -1.7075
 7282WAT    EPW29836   1.053   7.230   2.348  0.2339  0.0312  0.3401
 7283WAT      O29837   1.995   3.696   4.591 -0.0157  0.3575  0.4814
 7283WAT     H129838   2.066   3.656   4.623 -0.5351 -0.4656  0.6361
 7283WAT     H229839   2.004   3.688   4.505  0.1042  0.2917  0.4989
 7283WAT    EPW29840   2.007   3.689   4.583  0.4450  0.0556 -0.2074
 7284WAT      O29841   4.228   3.927   6.370 -0.4832 -0.3839 -0.0545
 7284WAT     H129842   4.192   3.864   6.419  1.2297 -1.0715  0.3809
 7284WAT     H229843   4.245   3.886   6.294  1.4650 -0.7806  0.5292
 7284WAT    EPW29844   4.225   3.912   6.366 -0.1813 -0.2099  0.0112
 7285WAT      O29845   1.043   0.966   0.107 -0.0136  0.1006 -0.2800
 7285WAT     H129846   1.051   0.900   0.050  1.4322  0.7005 -0.8436
 7285WAT     H229847   1.113   1.016   0.089  0.5075  0.3163  2.0373
 7285WAT    EPW29848   1.055   0.964   0.096  0.0573  0.3677  0.6608
 7286WAT      O29849   0.607   6.826   2.511  0.2093 -0.3054  0.3249
 7286WAT     H129850   0.543   6.804   2.566 -0.5911  0.7996 -0.1325
 7286WAT     H229851   0.667   6.862   2.563 -0.0461 -0.2907  0.6126
 7286WAT    EPW29852   0.607   6.828   2.527 -0.2600  0.8377  0.0308
 7287WAT      O29853   5.158   2.542   4.380 -0.1216 -0.0015 -0.1482
 7287WAT     H129854   5.215   2.596   4.418  0.0948 -0.1910 -0.1940
 7287WAT     H229855   5.086   2.589   4.372 -0.3612 -0.1466  1.0522
 7287WAT    EPW29856   5.156   2.557   4.384 -0.0569  0.2098  0.3910
 7288WAT      O29857   3.735   0.711   7.483 -0.2678 -0.1576  0.6984
 7288WAT     H129858   3.660   0.716   7.438 -0.2343 -0.6968  0.5719
 7288WAT     H229859   3.795   0.701   7.421 -0.1878 -0.5938  0.8426
 7288WAT    EPW29860   3.732   0.710   7.467 -0.1993  0.4266 -0.4103
 7289WAT      O29861   1.317   5.018   2.507  0.4492  0.2888 -0.5555
 7289WAT     H129862   1.286   5.064   2.574  0.8458  1.6856 -1.3048
 7289WAT     H229863   1.322   5.076   2.442 -0.2509 -1.1034 -1.9205
 7289WAT    EPW29864   1.313   5.033   2.507  0.1496 -0.9485  0.2153
 7290WAT      O29865   6.191   0.580   6.706 -0.1083 -0.1228  0.3047
 7290WAT     H129866   6.134   0.644   6.725 -1.6770 -1.3405 -0.1148
 7290WAT     H229867   6.141   0.517   6.672  1.5899 -1.0138 -0.6747
 7290WAT    EPW29868   6.175   0.580   6.704  0.4446 -0.2434  0.2455
 7291WAT      O29869   2.941   5.375   0.872 -0.1037 -0.4123  0.3078
 7291WAT     H129870   3.020   5.410   0.858  0.8282 -3.0718 -2.2088
 7291WAT     H229871   2.943   5.353   0.956  0.9642  1.4449  0.8123
 7291WAT    EPW29872   2.953   5.377   0.882  0.0208  0.1069 -0.3194
 7292WAT      O29873   3.942   3.249   5.658 -0.1272  0.5964 -0.1993
 7292WAT     H129874   3.948   3.194   5.726 -1.4628  1.7986  0.9510
 7292WAT     H229875   4.025   3.271   5.642  0.3574 -0.9917 -0.0831
 7292WAT    EPW29876   3.955   3.244   5.666 -0.2091 -0.1456 -0.6015
 7293WAT      O29877   1.760   2.788   6.522  0.3651  0.6346  0.2328
 7293WAT     H129878   1.799   2.828   6.589  1.0556  1.1816 -0.4849
 7293WAT     H229879   1.766   2.703   6.543  0.9549  0.7765  0.6548
 7293WAT    EPW29880   1.766   2.781   6.535  0.0567  0.5435 -0.5441
 7294WAT      O29881   6.364   5.034   0.900  0.0400 -0.6273 -0.2113
 7294WAT     H129882   6.299   4.990   0.939  0.8415 -1.4264  0.2693
 7294WAT     H229883   6.380   5.099   0.956 -0.3019 -0.4740 -0.2927
 7294WAT    EPW29884   6.357   5.037   0.914  0.5992  0.2825 -0.8015
 7295WAT      O29885   0.813   2.681   4.825  0.3576  0.4074  0.0423
 7295WAT     H129886   0.845   2.600   4.823 -2.1225 -0.6865 -1.7438
 7295WAT     H229887   0.728   2.669   4.809 -0.0861  3.3745 -0.3505
 7295WAT    EPW29888   0.805   2.667   4.822  0.1176  0.0526  0.2512
 7296WAT      O29889   3.276   5.267   0.490 -0.5229  0.1068  0.8062
 7296WAT     H129890   3.244   5.348   0.478  0.3240  0.1942 -1.2030
 7296WAT     H229891   3.207   5.216   0.474  0.0760  0.3028 -3.1606
 7296WAT    EPW29892   3.261   5.272   0.486  0.1383 -0.0608  0.6033
 7297WAT      O29893   2.606   2.670   0.031  0.1926 -0.1316  0.4206
 7297WAT     H129894   2.629   2.727  -0.030 -0.4548 -0.7528 -0.4270
 7297WAT     H229895   2.549   2.715   0.080 -1.4167 -0.4172 -1.0726
 7297WAT    EPW29896   2.601   2.685   0.029 -0.3022 -0.6581  0.3860
 7298WAT      O29897   4.642   7.369   6.291  0.0972  0.7269 -0.0075
 7298WAT     H129898   4.666   7.414   6.220  0.4864 -1.0366 -1.0725
 7298WAT     H229899   4.717   7.335   6.320 -0.4627 -1.8385 -1.2097
 7298WAT    EPW29900   4.656   7.370   6.285 -0.3511 -0.8095 -0.7169
 7299WAT      O29901   4.129   2.249   7.026 -0.1139 -0.2157 -0.8940
 7299WAT     H129902   4.066   2.189   7.029  1.9392 -2.5387 -0.7079
 7299WAT     H229903   4.167   2.242   7.104  2.0320 -0.9394 -1.9180
 7299WAT    EPW29904   4.126   2.239   7.038 -0.5344 -0.4879 -0.2287
 7300WAT      O29905   4.369   2.618   1.916 -0.5216 -0.4511 -0.6492
 7300WAT     H129906   4.426   2.684   1.916 -0.3120 -0.4994  2.2965
 7300WAT     H229907   4.298   2.652   1.880  0.9354 -0.0717 -3.4349
 7300WAT    EPW29908   4.367   2.632   1.911  0.0456  0.0967  0.1103
 7301WAT      O29909   1.872   0.067   3.743  0.1814 -0.4170 -0.2351
 7301WAT     H129910   1.930   0.094   3.803 -0.3624 -0.7598  0.4657
 7301WAT     H229911   1.873  -0.020   3.752 -0.7683 -0.4003  0.1123
 7301WAT    EPW29912   1.881   0.058   3.753 -0.4717  0.1716 -0.9054
 7302WAT      O29913   1.647   0.881   0.192 -0.1670  0.1854 -0.9411
 7302WAT     H129914   1.684   0.871   0.270  1.8769  0.9229 -1.7594
 7302WAT     H229915   1.665   0.806   0.151 -1.8668 -0.5037 -0.5207
 7302WAT    EPW29916   1.655   0.868   0.198 -0.4215  0.0862 -0.7283
 7303WAT      O29917   3.124   1.163   5.683 -0.3136  0.2575 -0.3830
 7303WAT     H129918   3.131   1.105   5.748  0.0811  0.4173 -0.2792
 7303WAT     H229919   3.131   1.114   5.611 -3.5916 -0.3509 -0.4286
 7303WAT    EPW29920   3.126   1.147   5.682 -0.2216 -0.7982  0.1344
 7304WAT      O29921   1.116   6.197   5.912  0.5745 -0.7643 -0.0167
 7304WAT     H129922   1.194   6.164   5.933  0.9479 -0.7630 -1.2837
 7304WAT     H229923   1.136   6.266   5.863 -0.2290 -0.3402  0.2348
 7304WAT    EPW29924   1.131   6.202   5.908  0.1135 -0.4310 -0.4300
 7305WAT      O29925   6.573   4.384   0.605  0.4197 -0.1601  0.3893
 7305WAT     H129926   6.585   4.453   0.553  0.4115  0.1479  0.7943
 7305WAT     H229927   6.650   4.375   0.646  0.2402 -0.0475  0.7498
 7305WAT    EPW29928   6.586   4.393   0.603 -0.5752 -0.2753 -0.0077
 7306WAT      O29929   4.742   3.592   1.754 -0.5881 -0.3362  0.0810
 7306WAT     H129930   4.675   3.632   1.715  1.1670  0.4584 -2.2631
 7306WAT     H229931   4.757   3.641   1.825 -1.7111  0.1345  0.0137
 7306WAT    EPW29932   4.734   3.605   1.759 -0.1229  0.0417 -0.6008
 7307WAT      O29933   5.562   6.294   7.514  0.4163 -0.1356 -0.4310
 7307WAT     H129934   5.628   6.349   7.529  0.7237 -0.3966 -0.8398
 7307WAT     H229935   5.523   6.328   7.444  0.7698 -0.5899 -0.8490
 7307WAT    EPW29936   5.566   6.307   7.506 -0.1488 -0.2078  0.0223
 7308WAT      O29937   0.876   4.116   6.155 -0.1525 -0.2415  0.5362
 7308WAT     H129938   0.789   4.109   6.163 -0.1051 -0.1094  1.1996
 7308WAT     H229939   0.892   4.079   6.078 -0.9636  1.1110 -0.3231
 7308WAT    EPW29940   0.866   4.109   6.145  0.2060  0.6650 -0.6150
 7309WAT      O29941   2.522   0.926   5.801 -0.0329 -0.1582  0.5307
 7309WAT     H129942   2.453   0.877   5.784 -0.5965  0.5644  0.6699
 7309WAT     H229943   2.504   0.962   5.878 -0.0278  0.9023  0.0648
 7309WAT    EPW29944   2.509   0.924   5.810 -0.2124  0.2664  0.1597
 7310WAT      O29945   7.247   3.518   7.368  0.0148  0.6567 -0.0062
 7310WAT     H129946   7.204   3.580   7.325 -0.5244  0.0722 -0.3311
 7310WAT     H229947   7.198   3.505   7.439  0.2496  0.7644  0.1758
 7310WAT    EPW29948   7.233   3.525   7.372  0.2085  0.0312  0.5728
 7311WAT      O29949   6.163   4.056   4.520 -0.4212  0.2818 -0.4922
 7311WAT     H129950   6.098   3.999   4.514  1.1235 -1.4547 -2.1837
 7311WAT     H229951   6.196   4.058   4.439  0.6619  2.3123 -0.0672
 7311WAT    EPW29952   6.158   4.048   4.507 -0.1923  0.9966  0.7702
 7312WAT      O29953   3.943   3.436   1.646  0.2660  0.2502 -0.3168
 7312WAT     H129954   3.894   3.476   1.585  0.2808 -0.5483 -0.8741
 7312WAT     H229955   4.013   3.410   1.601  1.3063  1.5324  0.5088
 7312WAT    EPW29956   3.946   3.438   1.630  0.1304 -0.1261  0.0336
 7313WAT      O29957   0.443   0.387   4.427 -0.5973 -0.5560  0.6294
 7313WAT     H129958   0.504   0.423   4.478  1.0273  0.4467 -1.8438
 7313WAT     H229959   0.393   0.454   4.402  0.8644 -0.2904 -1.9125
 7313WAT    EPW29960   0.445   0.402   4.431 -0.6407  0.0527  0.1794
 7314WAT      O29961   7.612   5.103   0.598 -0.0351  0.7088  0.1423
 7314WAT     H129962   7.539   5.078   0.556 -0.0875  0.7106  0.2314
 7314WAT     H229963   7.588   5.103   0.681 -0.2683  1.8394  0.0859
 7314WAT    EPW29964   7.598   5.099   0.604  0.1167  0.5166 -0.2289
 7315WAT      O29965   5.000   2.308   5.811  0.2175 -0.5158 -0.2906
 7315WAT     H129966   4.957   2.314   5.887 -0.7334  0.7820 -0.8893
 7315WAT     H229967   5.026   2.225   5.809  0.5511 -0.5025  1.5933
 7315WAT    EPW29968   4.997   2.297   5.822  0.5272 -0.4465  0.5786
 7316WAT      O29969   6.381   6.909   1.101  0.3537 -0.4772 -0.4351
 7316WAT     H129970   6.358   6.857   1.034  2.5945 -0.5014 -1.2779
 7316WAT     H229971   6.372   6.857   1.171  1.2407 -1.6056 -1.1138
 7316WAT    EPW29972   6.376   6.893   1.101  0.5237 -0.1558  0.3296
 7317WAT      O29973   5.948   6.883   5.039 -0.5983  0.7795 -0.3669
 7317WAT     H129974   5.864   6.866   5.052 -0.4095 -0.6209 -0.7348
 7317WAT     H229975   5.954   6.969   5.049 -1.9220  0.8023  0.4663
 7317WAT    EPW29976   5.937   6.893   5.043  0.0301 -0.7003  0.1424
 7318WAT      O29977   7.216   5.300   5.563  0.1433 -0.5312 -0.2994
 7318WAT     H129978   7.269   5.231   5.558  1.3515  0.3751 -0.2872
 7318WAT     H229979   7.245   5.353   5.501  0.5104  0.8247  0.9798
 7318WAT    EPW29980   7.228   5.298   5.553  0.2195  0.3900 -0.1225
 7319WAT      O29981   6.765   2.871   7.257  0.1978  0.1355  0.0011
 7319WAT     H129982   6.838   2.896   7.299  1.2365 -2.1683 -0.2932
 7319WAT     H229983   6.776   2.786   7.247 -2.9334 -0.4443  0.6050
 7319WAT    EPW29984   6.778   2.862   7.262 -0.2593 -0.3286 -0.4799
 7320WAT      O29985   6.263   1.614   5.906 -0.0261  0.1601  0.1937
 7320WAT     H129986   6.320   1.555   5.877  1.1848  1.1815  0.3848
 7320WAT     H229987   6.241   1.658   5.834 -0.9953 -0.5405  0.0359
 7320WAT    EPW29988   6.268   1.612   5.891  0.1650 -0.7343 -0.2329
 7321WAT      O29989   0.604   0.061   6.789 -0.8842  0.3331  0.0452
 7321WAT     H129990   0.634   0.142   6.803 -1.7489  0.8216 -0.7876
 7321WAT     H229991   0.519   0.067   6.808 -0.8650 -0.5083  0.4351
 7321WAT    EPW29992   0.596   0.074   6.794 -0.0326 -0.2239 -0.2441
 7322WAT      O29993   7.299   5.171   7.157  0.3456 -0.2356 -0.2854
 7322WAT     H129994   7.328   5.252   7.141  2.5399 -1.0069 -0.4634
 7322WAT     H229995   7.219   5.172   7.122  0.0149  2.0448  0.3145
 7322WAT    EPW29996   7.291   5.183   7.150  0.2235  0.1962 -0.7160
 7323WAT      O29997   6.951   0.824   4.985  0.0808 -0.0060 -0.4297
 7323WAT     H129998   7.021   0.870   4.959 -0.7862  2.2010  0.9470
 7323WAT     H229999   6.885   0.878   4.973 -0.9620 -0.7152  1.6622
 7323WAT    EPW30000   6.952   0.839   4.979 -0.6517  0.7456 -0.4944
 7324WAT      O30001   2.379   0.908   4.790  0.4170 -0.1162 -0.5913
 7324WAT     H130002   2.417   0.977   4.827  0.1075 -0.2654  0.0225
 7324WAT     H230003   2.417   0.840   4.828 -1.6856 -0.2929  1.4454
 7324WAT    EPW30004   2.390   0.908   4.801  0.0523 -0.5358 -0.4468
 7325WAT      O30005   4.651   1.000   7.388 -0.1080  0.5556  0.0290
 7325WAT     H130006   4.581   1.040   7.420  0.2255  1.8641 -0.8237
 7325WAT     H230007   4.639   0.916   7.411 -1.5224  0.8938  0.6071
 7325WAT    EPW30008   4.639   0.993   7.396 -0.6297  0.0261  0.0167
 7326WAT      O30009   2.878   5.870   4.574 -0.3294  0.3146 -0.1369
 7326WAT     H130010   2.808   5.821   4.594  0.9223 -0.8973  1.6012
 7326WAT     H230011   2.870   5.883   4.489 -1.3438 -2.0524 -0.4918
 7326WAT    EPW30012   2.867   5.864   4.565 -0.4943 -0.3549 -0.0344
 7327WAT      O30013   0.521   4.986   0.239  0.0235  0.0956  0.4004
 7327WAT     H130014   0.440   4.966   0.213  0.6441  0.2181 -1.8914
 7327WAT     H230015   0.512   5.007   0.323 -1.8303 -2.7271  1.0463
 7327WAT    EPW30016   0.508   4.986   0.248  0.7771  0.1545 -0.8105
 7328WAT      O30017   1.537   1.500   0.530  0.3399  0.3820 -0.6335
 7328WAT     H130018   1.485   1.468   0.468 -0.0807  0.9611 -0.5753
 7328WAT     H230019   1.615   1.464   0.511 -0.4271 -2.1417  0.4466
 7328WAT    EPW30020   1.541   1.490   0.518  0.4552  0.0403 -0.0976
 7329WAT      O30021   7.184   1.094   6.245  0.3590  0.3043  0.1602
 7329WAT     H130022   7.187   1.054   6.323  0.6693 -0.4578 -0.2200
 7329WAT     H230023   7.112   1.061   6.208 -0.4701  1.5957  0.5865
 7329WAT    EPW30024   7.174   1.083   6.251 -0.3038 -0.0132  0.2092
 7330WAT      O30025   3.156   2.418   6.999  0.7284 -0.4029 -0.3808
 7330WAT     H130026   3.204   2.346   7.002  1.9505  0.3974  0.2063
 7330WAT     H230027   3.108   2.414   7.072  3.2034  0.8917  1.5169
 7330WAT    EPW30028   3.156   2.407   7.010 -0.2828 -0.0962 -0.2812
 7331WAT      O30029   6.782   7.523   3.917  0.1249  0.0798 -0.2756
 7331WAT     H130030   6.827   7.576   3.864 -0.5767  0.1418 -0.8129
 7331WAT     H230031   6.701   7.527   3.887 -0.1168 -0.5767  0.2622
 7331WAT    EPW30032   6.777   7.531   3.905 -0.1293 -0.4530 -0.3849
 7332WAT      O30033   6.858   3.354   3.933  0.3533  0.4564 -0.2505
 7332WAT     H130034   6.857   3.370   3.847  1.2970  2.1572  0.0009
 7332WAT     H230035   6.883   3.271   3.939 -0.4694  0.0875 -1.6330
 7332WAT    EPW30036   6.862   3.344   3.921 -0.3881  0.4549 -0.2949
 7333WAT      O30037   6.002   3.524   2.005  0.1729  0.8094  0.3287
 7333WAT     H130038   5.992   3.608   1.982 -1.6850  0.9003  1.2485
 7333WAT     H230039   6.022   3.484   1.930 -1.6846  1.6791 -0.6969
 7333WAT    EPW30040   6.004   3.531   1.991  0.2590  0.1487 -0.3144
 7334WAT      O30041   7.153   1.241   3.591  0.0986 -0.0994 -0.3985
 7334WAT     H130042   7.169   1.214   3.509  2.3308 -0.4199  0.0890
 7334WAT     H230043   7.165   1.327   3.586 -0.6167 -0.0001 -0.5636
 7334WAT    EPW30044   7.157   1.249   3.578 -0.0683  0.7788  0.0378
 7335WAT      O30045   5.303   3.304   5.144  0.2092 -0.1277 -0.1006
 7335WAT     H130046   5.348   3.344   5.207  0.4028 -0.5537  0.0374
 7335WAT     H230047   5.320   3.220   5.158 -1.2755 -0.3620  0.4463
 7335WAT    EPW30048   5.312   3.298   5.156  0.0936 -0.6968  0.2848
 7336WAT      O30049   2.836   5.994   1.260  0.3000  0.5650  0.5280
 7336WAT     H130050   2.784   6.061   1.277 -0.9864  0.2193 -1.6796
 7336WAT     H230051   2.814   5.970   1.179 -0.9338 -3.9009  1.8557
 7336WAT    EPW30052   2.825   6.000   1.251 -0.0842  0.0857 -0.3787
 7337WAT      O30053   5.695   1.800   5.119 -0.0478  0.4883 -0.7176
 7337WAT     H130054   5.634   1.745   5.147 -0.8097  0.2271 -2.7674
 7337WAT     H230055   5.717   1.844   5.191  0.4872 -2.3213  0.9918
 7337WAT    EPW30056   5.690   1.798   5.134 -0.0885  0.1715  0.4867
 7338WAT      O30057   5.645   2.213   6.905 -0.0679  0.4219 -0.3572
 7338WAT     H130058   5.614   2.152   6.959 -0.0643  2.0069  1.5232
 7338WAT     H230059   5.574   2.255   6.878  0.0910  1.2912  0.5247
 7338WAT    EPW30060   5.630   2.210   6.909 -0.0219 -0.0347 -0.2750
 7339WAT      O30061   0.723   7.091   7.443 -0.0877  0.4647  0.1981
 7339WAT     H130062   0.651   7.051   7.413 -0.4070 -0.0336  1.5643
 7339WAT     H230063   0.788   7.040   7.414 -0.4507 -0.6480  1.2383
 7339WAT    EPW30064   0.722   7.077   7.434 -0.7106 -0.6995  0.0288
 7340WAT      O30065   3.392   4.269   5.792 -0.6355 -0.5497  0.4970
 7340WAT     H130066   3.444   4.325   5.835  1.2862 -2.0575  0.3182
 7340WAT     H230067   3.356   4.222   5.856 -1.0867 -0.0948  0.5862
 7340WAT    EPW30068   3.395   4.270   5.808  0.5473 -0.3900 -0.1279
 7341WAT      O30069   5.888   4.671   6.713  0.2329  0.0735 -0.3470
 7341WAT     H130070   5.807   4.658   6.684 -0.2256 -0.7472  1.1464
 7341WAT     H230071   5.910   4.748   6.680 -1.3678  0.5559 -0.3669
 7341WAT    EPW30072   5.879   4.680   6.704  0.2918  0.5309 -0.4525
 7342WAT      O30073   5.439   2.673   0.207  0.2905 -0.0024  0.4806
 7342WAT     H130074   5.462   2.623   0.275 -0.9731 -0.3813  0.6572
 7342WAT     H230075   5.357   2.647   0.190  0.8082 -0.3952 -1.6196
 7342WAT    EPW30076   5.430   2.662   0.215  0.2439  0.7118  0.6176
 7343WAT      O30077   1.535   2.412   3.640  0.0388 -0.5631 -0.7522
 7343WAT     H130078   1.522   2.326   3.636 -0.2401 -0.6067  0.6903
 7343WAT     H230079   1.573   2.430   3.563 -4.5378 -1.0694 -3.5001
 7343WAT    EPW30080   1.539   2.402   3.628 -0.5178  0.3085 -0.7649
 7344WAT      O30081   0.498   6.482   1.475  0.1837 -0.6320  0.0657
 7344WAT     H130082   0.449   6.518   1.538  1.0019  1.0135 -0.1790
 7344WAT     H230083   0.455   6.503   1.402 -0.6517 -2.3576  0.0110
 7344WAT    EPW30084   0.485   6.490   1.474 -0.1410 -0.0581 -0.1735
 7345WAT      O30085   6.870   0.706   2.785  0.4645 -0.3194 -0.6034
 7345WAT     H130086   6.929   0.642   2.774  0.0015 -1.1887  1.5156
 7345WAT     H230087   6.854   0.733   2.703  0.8203 -2.7909 -1.5851
 7345WAT    EPW30088   6.876   0.700   2.771 -0.3026  0.3332  0.5217
 7346WAT      O30089   4.360   5.397   4.477  0.1052 -0.3596 -0.0231
 7346WAT     H130090   4.338   5.476   4.508  1.5386  0.9513 -2.0761
 7346WAT     H230091   4.423   5.370   4.531  0.6633  0.6157 -0.1699
 7346WAT    EPW30092   4.366   5.405   4.490 -0.3002 -0.0417  0.0134
 7347WAT      O30093   1.162   2.929   5.865 -0.1686 -0.1951 -0.0775
 7347WAT     H130094   1.240   2.934   5.827 -0.6028 -0.6375 -1.0583
 7347WAT     H230095   1.161   2.850   5.901 -0.1974 -0.2324 -0.1591
 7347WAT    EPW30096   1.173   2.918   5.865 -0.0222 -0.2583  0.1965
 7348WAT      O30097   1.501   4.473   3.302 -0.5332 -0.4734  0.5683
 7348WAT     H130098   1.583   4.450   3.320 -0.8223  0.1115  2.9273
 7348WAT     H230099   1.510   4.551   3.263  0.0353 -0.2331  1.1532
 7348WAT    EPW30100   1.515   4.481   3.299 -0.8163 -0.2049 -0.1610
 7349WAT      O30101   3.831   6.431   5.237  0.5130 -0.0963  0.1393
 7349WAT     H130102   3.844   6.406   5.320 -1.6255  1.5562  1.1027
 7349WAT     H230103   3.744   6.427   5.229  0.7324 -1.1344 -2.3940
 7349WAT    EPW30104   3.820   6.427   5.248 -0.6428 -0.4738  0.1119
 7350WAT      O30105   6.447   1.813   4.661  0.3022 -0.3894  0.5106
 7350WAT     H130106   6.403   1.737   4.663  0.5996 -0.5604  0.5312
 7350WAT     H230107   6.502   1.804   4.594 -0.4780  0.2673 -0.2506
 7350WAT    EPW30108   6.448   1.801   4.651 -0.5075  0.6068  0.0413
 7351WAT      O30109   5.647   7.380   1.656 -0.0056  1.2484  0.4282
 7351WAT     H130110   5.590   7.446   1.653  0.2366  1.4403 -0.0062
 7351WAT     H230111   5.723   7.417   1.634  0.1469  0.8436  0.2665
 7351WAT    EPW30112   5.650   7.395   1.652  0.2664  0.1912 -0.2055
 7352WAT      O30113   2.861   1.717   1.621  0.1463 -0.2242  0.4364
 7352WAT     H130114   2.812   1.775   1.664 -0.2577  0.8989 -1.4364
 7352WAT     H230115   2.929   1.764   1.593  0.8684 -1.1390  0.5916
 7352WAT    EPW30116   2.864   1.732   1.623 -0.0018 -0.1705 -0.1281
 7353WAT      O30117   6.647   5.057   5.560 -0.4883  0.2469 -0.3088
 7353WAT     H130118   6.574   5.065   5.513 -0.4780 -0.9669 -0.5453
 7353WAT     H230119   6.700   5.117   5.525 -0.7169 -0.1696 -1.3941
 7353WAT    EPW30120   6.644   5.067   5.548 -0.0039  0.2159  0.5395
 7354WAT      O30121   2.536   3.250   4.011  0.5212 -0.3007  0.1016
 7354WAT     H130122   2.554   3.221   3.931  0.7331 -1.8077  0.6541
 7354WAT     H230123   2.615   3.265   4.045  0.4131  1.2355 -0.2467
 7354WAT    EPW30124   2.551   3.248   4.004 -0.1477 -1.0004 -0.1764
 7355WAT      O30125   3.998   0.596   3.643 -0.6250 -0.2523  0.7239
 7355WAT     H130126   3.942   0.603   3.577 -0.7388  0.3744  0.8806
 7355WAT     H230127   3.963   0.646   3.705  0.3390  0.5567  0.6492
 7355WAT    EPW30128   3.985   0.604   3.642 -0.4507 -0.4116  0.4414
 7356WAT      O30129   0.641   3.086   6.127 -0.3954 -0.0340  0.3551
 7356WAT     H130130   0.605   3.092   6.048  0.0273  0.4679  0.1941
 7356WAT     H230131   0.709   3.033   6.114 -0.1090  0.3424  0.2967
 7356WAT    EPW30132   0.646   3.079   6.113  0.3226  0.2571  0.3911
 7357WAT      O30133   3.189   4.260   2.725  0.3319 -0.1169  0.5982
 7357WAT     H130134   3.148   4.290   2.654  2.2557  1.1380 -0.0362
 7357WAT     H230135   3.249   4.205   2.693  1.5438  0.8238  1.1625
 7357WAT    EPW30136   3.192   4.256   2.710 -0.4158 -0.1357  0.2759
 7358WAT      O30137   2.613   7.186   6.816  0.3983  0.0870 -0.6225
 7358WAT     H130138   2.526   7.185   6.821  0.3047 -1.3627 -1.7386
 7358WAT     H230139   2.629   7.231   6.743  0.6885  1.5479  0.2931
 7358WAT    EPW30140   2.603   7.192   6.806 -0.2972  0.6543 -0.3585
 7359WAT      O30141   0.374   2.296   4.037  0.0931 -0.4274 -0.3590
 7359WAT     H130142   0.312   2.340   3.995  0.2796  0.6356  0.4398
 7359WAT     H230143   0.445   2.345   4.026  0.0319  0.1612  1.5957
 7359WAT    EPW30144   0.375   2.310   4.029  0.1293  0.3610  0.1572
 7360WAT      O30145   4.136   1.842   4.788 -0.5129 -0.3692  0.0161
 7360WAT     H130146   4.091   1.770   4.810 -0.5569 -0.1360  0.7205
 7360WAT     H230147   4.183   1.859   4.859 -0.6320  0.3992 -0.0823
 7360WAT    EPW30148   4.136   1.834   4.802 -0.6775  0.6545  0.5591
 7361WAT      O30149   1.386   6.448   0.096  0.1441  0.2604  0.1330
 7361WAT     H130150   1.316   6.445   0.148 -0.4903 -0.8874 -0.7565
 7361WAT     H230151   1.352   6.460   0.017  1.0413  0.9659 -0.1626
 7361WAT    EPW30152   1.370   6.450   0.092  0.0753  0.1554 -0.3607
 7362WAT      O30153   3.928   2.069   7.035  0.2171  0.1739  0.3179
 7362WAT     H130154   3.927   2.024   7.110 -1.4861 -0.4355 -0.0357
 7362WAT     H230155   3.845   2.070   7.011  0.5400  1.6303 -0.8372
 7362WAT    EPW30156   3.916   2.062   7.043  0.5764 -0.0058  0.0688
 7363WAT      O30157   6.991   7.328   0.210  0.0272 -0.7158  0.2243
 7363WAT     H130158   7.035   7.390   0.167 -0.5328 -0.7734 -0.4613
 7363WAT     H230159   7.042   7.258   0.203 -0.6091 -1.0591 -1.4692
 7363WAT    EPW30160   7.005   7.327   0.202 -0.3571 -0.3492 -0.0406
 7364WAT      O30161   4.307   4.121   6.542  0.0780 -0.1636  0.2826
 7364WAT     H130162   4.383   4.153   6.515  0.3380 -1.6082 -0.8326
 7364WAT     H230163   4.280   4.074   6.474 -0.8499 -1.2969  1.3995
 7364WAT    EPW30164   4.314   4.119   6.528  0.3926  0.5706 -0.1140
 7365WAT      O30165   2.362   4.390   4.198 -0.1396 -0.2792  0.3314
 7365WAT     H130166   2.295   4.339   4.222 -0.8906 -0.2127 -1.4017
 7365WAT     H230167   2.403   4.408   4.273 -0.7179 -2.2022  1.1669
 7365WAT    EPW30168   2.358   4.385   4.212 -0.0149 -0.2725  0.0798
 7366WAT      O30169   4.351   3.497   3.781 -0.1562 -0.1780 -0.3355
 7366WAT     H130170   4.286   3.556   3.771 -0.5004 -0.6463 -0.9346
 7366WAT     H230171   4.402   3.511   3.712  0.3228  0.1041  0.0704
 7366WAT    EPW30172   4.349   3.508   3.770 -0.0213  0.1172  0.8407
 7367WAT      O30173   0.954   5.784   6.529  0.0049 -0.3985 -0.3786
 7367WAT     H130174   0.978   5.717   6.478 -1.0272 -1.6940  0.7739
 7367WAT     H230175   1.030   5.823   6.547  0.4801 -0.3206 -2.2633
 7367WAT    EPW30176   0.969   5.780   6.524 -0.1741  0.6162 -0.2803
 7368WAT      O30177   5.751   3.168   1.172  0.4227  0.0342 -0.1906
 7368WAT     H130178   5.734   3.085   1.192 -1.4143  0.3373 -0.3062
 7368WAT     H230179   5.734   3.171   1.086  2.3453  0.1187 -0.6027
 7368WAT    EPW30180   5.746   3.156   1.162  0.2181 -0.5633 -0.7775
 7369WAT      O30181   4.846   7.198   5.973 -0.5210 -0.0358 -0.3830
 7369WAT     H130182   4.912   7.190   6.029 -1.0298 -0.5078  0.1672
 7369WAT     H230183   4.812   7.276   5.992 -0.2604  0.1107 -0.5163
 7369WAT    EPW30184   4.851   7.208   5.984 -1.2333 -0.2646 -0.1541
 7370WAT      O30185   1.319   7.404   1.572  0.7128  0.0434  0.2662
 7370WAT     H130186   1.271   7.355   1.627  1.2401 -0.6481  0.1333
 7370WAT     H230187   1.265   7.467   1.548 -0.2681 -0.9331 -0.1743
 7370WAT    EPW30188   1.304   7.406   1.577 -0.0011 -0.1024  0.0973
 7371WAT      O30189   5.610   5.366   5.419 -0.9127 -0.4585  0.5108
 7371WAT     H130190   5.617   5.354   5.505 -0.3316 -3.1041  0.1682
 7371WAT     H230191   5.528   5.394   5.409 -0.6485  1.0366  1.9646
 7371WAT    EPW30192   5.599   5.368   5.430  0.2799  0.1013 -0.1626
 7372WAT      O30193   5.932   0.804   2.100 -0.3103 -0.3391 -0.1641
 7372WAT     H130194   5.982   0.850   2.154 -1.1765  0.4083  0.0286
 7372WAT     H230195   5.971   0.726   2.097  0.9201  0.2540 -0.1202
 7372WAT    EPW30196   5.945   0.799   2.108 -0.5046 -0.0550 -0.4384
 7373WAT      O30197   5.920   1.485   1.477 -0.0850  0.2384 -0.0510
 7373WAT     H130198   5.871   1.529   1.535  0.1079  0.0338  0.2728
 7373WAT     H230199   5.998   1.481   1.516  0.0230  0.0213 -0.2905
 7373WAT    EPW30200   5.924   1.491   1.491 -0.2089  0.8639  0.5436
 7374WAT      O30201   5.934   5.186   6.937  0.2646 -0.0132 -0.1413
 7374WAT     H130202   5.900   5.152   6.864  0.3828 -0.6435  0.0961
 7374WAT     H230203   6.001   5.234   6.907 -1.1617  1.7765 -0.6820
 7374WAT    EPW30204   5.938   5.188   6.921  0.6462  0.0089  0.1793
 7375WAT      O30205   5.449   1.479   0.849 -0.0609 -0.3336 -0.6681
 7375WAT     H130206   5.535   1.469   0.852 -0.0150 -0.2004 -1.4290
 7375WAT     H230207   5.419   1.415   0.900  0.4735 -0.6552 -0.7558
 7375WAT    EPW30208   5.457   1.468   0.857 -0.8099  0.2102 -0.6003
 7376WAT      O30209   2.335   5.648   6.323  0.1944  0.3531 -0.4600
 7376WAT     H130210   2.378   5.723   6.331 -0.3227  0.5312  1.0275
 7376WAT     H230211   2.361   5.602   6.392 -0.8281 -0.1322 -0.3738
 7376WAT    EPW30212   2.345   5.652   6.334  0.0094  0.0789  0.1139
 7377WAT      O30213   4.156   3.418   7.074 -0.4609 -0.0007 -0.3063
 7377WAT     H130214   4.213   3.396   7.012 -0.4605 -0.1243 -0.2615
 7377WAT     H230215   4.122   3.493   7.044 -0.6557 -0.2004 -0.5843
 7377WAT    EPW30216   4.160   3.426   7.060  0.3581 -0.9622  0.0307
 7378WAT      O30217   7.224   1.982   5.669 -0.3719  0.0789  0.5041
 7378WAT     H130218   7.193   2.064   5.667  1.3307  0.7977  1.6179
 7378WAT     H230219   7.211   1.958   5.752 -0.1306 -0.4967  0.3805
 7378WAT    EPW30220   7.217   1.990   5.681  0.3087  0.1225  0.8101
 7379WAT      O30221   2.759   1.515   6.043  0.2615  0.2365 -0.8117
 7379WAT     H130222   2.823   1.561   6.079 -0.2424 -1.3283  2.4190
 7379WAT     H230223   2.792   1.435   6.037 -1.3959 -0.7245  1.4262
 7379WAT    EPW30224   2.773   1.510   6.047  0.0542 -0.1249 -0.6671
 7380WAT      O30225   2.965   6.155   5.520  0.0571 -0.3450  0.1693
 7380WAT     H130226   2.985   6.124   5.442  1.3325 -1.7652  0.9972
 7380WAT     H230227   2.879   6.170   5.516  0.2529  0.5774 -1.7784
 7380WAT    EPW30228   2.955   6.153   5.508 -0.0008  0.3016 -0.4595
 7381WAT      O30229   6.494   2.612   1.807  0.5503  0.1898  0.3074
 7381WAT     H130230   6.541   2.570   1.867  0.5112 -3.2634 -1.7844
 7381WAT     H230231   6.420   2.631   1.848  0.4240 -2.2852  1.4118
 7381WAT    EPW30232   6.490   2.609   1.822 -0.4632  0.2206  0.0085
 7382WAT      O30233   4.521   6.824   6.580  0.5612 -0.0432 -0.7071
 7382WAT     H130234   4.554   6.788   6.653  1.3732 -0.1242 -1.1014
 7382WAT     H230235   4.442   6.788   6.573  0.4208  0.0557  0.1998
 7382WAT    EPW30236   4.514   6.814   6.590 -0.1321  0.3889  0.2219
 7383WAT      O30237   4.103   5.118   0.921  0.2758 -0.0424  0.3718
 7383WAT     H130238   4.040   5.058   0.926  1.1227 -1.0193 -0.3252
 7383WAT     H230239   4.140   5.115   1.000 -0.5821  0.5921  0.8100
 7383WAT    EPW30240   4.099   5.109   0.933  0.2200 -0.3058 -0.2108
 7384WAT      O30241   4.478   1.851   1.138  0.6086  0.2755  0.4328
 7384WAT     H130242   4.554   1.868   1.179  2.3306  0.0030 -2.3724
 7384WAT     H230243   4.471   1.765   1.143  0.6844  0.2654  0.3652
 7384WAT    EPW30244   4.488   1.841   1.145  0.1780  0.6753  0.0616
 7385WAT      O30245   3.235   5.462   5.700  0.6121 -0.3675 -0.1153
 7385WAT     H130246   3.167   5.487   5.651  0.6081  1.9888  0.9416
 7385WAT     H230247   3.304   5.473   5.647  0.5718  1.8126  0.2006
 7385WAT    EPW30248   3.235   5.467   5.685 -0.2766  0.8464  0.1933
 7386WAT      O30249   4.087   7.466   4.561  0.5953 -0.5489  0.5409
 7386WAT     H130250   4.053   7.397   4.603  1.0280 -0.3364  1.2676
 7386WAT     H230251   4.122   7.432   4.490  0.1767 -0.9789  0.5366
 7386WAT    EPW30252   4.087   7.451   4.557  0.8109 -0.5570 -0.1905
 7387WAT      O30253   1.649   7.084   2.381  0.4109 -0.5447  0.6025
 7387WAT     H130254   1.695   7.139   2.331 -0.6234  0.4575  0.7159
 7387WAT     H230255   1.706   7.022   2.401  0.5708 -1.7995 -2.9611
 7387WAT    EPW30256   1.664   7.083   2.377  0.9645 -0.0339 -0.2177
 7388WAT      O30257   5.342   3.136   2.674 -0.5296 -0.2998  0.3353
 7388WAT     H130258   5.368   3.111   2.594 -2.3876 -0.1008 -0.3907
 7388WAT     H230259   5.257   3.113   2.675 -1.0209  1.4285  1.5210
 7388WAT    EPW30260   5.333   3.129   2.662 -0.0417  0.0957 -0.4741
 7389WAT      O30261   5.739   4.075   1.137 -0.1108  0.2290 -0.1745
 7389WAT     H130262   5.769   4.057   1.057 -1.4169  1.1727 -0.9343
 7389WAT     H230263   5.696   4.151   1.125  0.3774  0.8278  1.6125
 7389WAT    EPW30264   5.737   4.084   1.123 -0.1331 -0.3767  0.5020
 7390WAT      O30265   3.707   0.799   0.486  0.4358 -0.8090 -0.3443
 7390WAT     H130266   3.635   0.755   0.508  0.0807  0.0954  0.3643
 7390WAT     H230267   3.759   0.790   0.556  2.6697 -4.6310 -2.1810
 7390WAT    EPW30268   3.704   0.791   0.499 -0.1868  0.0797  0.3192
 7391WAT      O30269   5.464   3.106   1.459 -0.1229  0.2155  0.8168
 7391WAT     H130270   5.388   3.110   1.416  0.4190  2.0182 -0.0764
 7391WAT     H230271   5.446   3.143   1.536 -0.3658 -0.2531  0.9900
 7391WAT    EPW30272   5.450   3.112   1.464 -0.5572 -0.4032 -0.1079
 7392WAT      O30273   2.482   6.223   6.584 -0.0269  0.1221 -0.0494
 7392WAT     H130274   2.552   6.236   6.634 -0.3625  0.0790  0.4396
 7392WAT     H230275   2.443   6.301   6.584 -0.8584 -0.2660  1.0557
 7392WAT    EPW30276   2.487   6.237   6.592  0.2357  0.1955  0.2044
 7393WAT      O30277   6.334   2.118   5.360 -0.4094  0.2322 -0.0583
 7393WAT     H130278   6.393   2.070   5.317  0.6247  0.8690  0.6238
 7393WAT     H230279   6.360   2.200   5.346 -1.9324  0.6163 -0.8698
 7393WAT    EPW30280   6.346   2.123   5.351 -0.7869 -0.5453 -0.2679
 7394WAT      O30281   5.681   2.915   1.265  0.5255 -0.6362 -0.1971
 7394WAT     H130282   5.680   2.943   1.347 -0.1196 -0.6049 -0.2142
 7394WAT     H230283   5.597   2.918   1.241  0.6231 -1.2957 -0.6363
 7394WAT    EPW30284   5.669   2.920   1.273 -0.4622  0.0685 -0.1466
 7395WAT      O30285   4.353   6.343   2.520 -0.0379 -0.1426  1.3243
 7395WAT     H130286   4.277   6.363   2.559  0.3613  0.4397  1.8314
 7395WAT     H230287   4.409   6.399   2.556  0.0821  1.4698 -1.2013
 7395WAT    EPW30288   4.350   6.354   2.531  0.1034 -0.3931  0.1470
 7396WAT      O30289   5.116   0.422   4.650 -0.6486  0.0179 -0.3579
 7396WAT     H130290   5.097   0.504   4.628  1.1310  0.5771  0.0031
 7396WAT     H230291   5.099   0.377   4.577  0.4003  1.0646 -1.2822
 7396WAT    EPW30292   5.111   0.427   4.636 -0.0428  0.1343 -0.6905
 7397WAT      O30293   4.591   1.339   5.818 -0.0903 -0.0760 -0.2519
 7397WAT     H130294   4.541   1.282   5.860 -1.5538 -0.5296 -2.4592
 7397WAT     H230295   4.612   1.298   5.744  0.5946  1.4413 -0.9530
 7397WAT    EPW30296   4.587   1.325   5.813  0.0296 -0.2079 -0.0110
 7398WAT      O30297   4.621   4.206   1.119  0.4514 -0.0258 -0.3008
 7398WAT     H130298   4.704   4.212   1.093  0.2845 -1.2026 -1.2068
 7398WAT     H230299   4.605   4.120   1.117 -1.5456  0.2759 -2.7824
 7398WAT    EPW30300   4.631   4.194   1.115  0.0463 -0.2707  0.1474
 7399WAT      O30301   5.304   6.383   5.205  0.0531 -0.1351 -0.1081
 7399WAT     H130302   5.352   6.317   5.238  0.6241 -0.0027 -0.6494
 7399WAT     H230303   5.258   6.411   5.274  1.3076  0.2237  0.6259
 7399WAT    EPW30304   5.304   6.377   5.220  0.2561 -0.3096  0.2687
 7400WAT      O30305   1.942   0.160   7.143 -0.3830 -0.1955 -0.3525
 7400WAT     H130306   1.874   0.205   7.175 -0.1715  0.2941 -0.5889
 7400WAT     H230307   1.905   0.089   7.108 -0.7617  0.0185 -0.3860
 7400WAT    EPW30308   1.926   0.156   7.143  0.4189 -0.4967  0.0952
 7401WAT      O30309   1.048   7.264   4.106  0.1295 -0.3456  0.1752
 7401WAT     H130310   1.081   7.185   4.087  0.7203 -0.4558  1.5150
 7401WAT     H230311   1.118   7.316   4.105 -0.2169  0.1210 -0.4347
 7401WAT    EPW30312   1.063   7.260   4.103 -0.6099 -0.5350 -0.6024
 7402WAT      O30313   1.888   6.857   0.575  0.1658  0.3911 -0.0135
 7402WAT     H130314   1.867   6.892   0.498 -1.0283 -2.3117 -1.0319
 7402WAT     H230315   1.816   6.815   0.599  1.4515 -1.2883  1.1073
 7402WAT    EPW30316   1.874   6.856   0.567 -0.1727  0.5125  0.1586
 7403WAT      O30317   3.078   3.278   0.276  0.3980  0.1763  0.5982
 7403WAT     H130318   3.145   3.332   0.261  0.3236 -0.2723 -1.7208
 7403WAT     H230319   3.104   3.203   0.240 -0.6407 -0.5355  1.2777
 7403WAT    EPW30320   3.092   3.275   0.269  0.1373  0.1897 -0.3673
 7404WAT      O30321   5.754   0.219   4.194  0.5173 -0.4191  0.8406
 7404WAT     H130322   5.685   0.254   4.236  0.0480 -1.7474  1.2591
 7404WAT     H230323   5.731   0.223   4.110  0.4067  0.1305  0.8951
 7404WAT    EPW30324   5.740   0.225   4.188 -0.1950 -0.8968  0.1607
 7405WAT      O30325   6.976   4.189   0.797 -0.4633  0.3368 -0.4943
 7405WAT     H130326   7.030   4.151   0.741 -1.0955 -1.7136  0.1654
 7405WAT     H230327   7.022   4.192   0.871 -1.1647 -1.4043  0.0658
 7405WAT    EPW30328   6.991   4.184   0.800 -0.3674  0.1325 -0.1525
 7406WAT      O30329   1.799   0.151   5.209  0.0645  0.0009 -0.1074
 7406WAT     H130330   1.815   0.069   5.183 -0.9620 -0.3452  0.2947
 7406WAT     H230331   1.838   0.200   5.149 -0.7050 -0.7868 -1.2988
 7406WAT    EPW30332   1.807   0.146   5.196 -0.1014 -0.3137 -0.2247
 7407WAT      O30333   5.231   7.453   0.142 -0.8562  0.0179 -0.1764
 7407WAT     H130334   5.285   7.405   0.093  0.1048  0.0160  0.8457
 7407WAT     H230335   5.251   7.535   0.120  0.1289  0.0416  0.7538
 7407WAT    EPW30336   5.242   7.458   0.132 -0.1616 -0.7858 -0.3036
 7408WAT      O30337   0.419   7.398   5.311  0.1294  0.7277 -0.9280
 7408WAT     H130338   0.435   7.483   5.297 -0.1476  0.9689  0.1880
 7408WAT     H230339   0.477   7.376   5.372 -1.2035  0.6630  0.3708
 7408WAT    EPW30340   0.430   7.407   5.318 -0.3110 -0.1920 -0.8881
 7409WAT      O30341   5.514   5.775   1.955  0.0687  0.6227 -0.8292
 7409WAT     H130342   5.520   5.777   2.042  0.8087  0.0556 -0.8632
 7409WAT     H230343   5.429   5.793   1.941 -0.3325 -0.3950  0.0595
 7409WAT    EPW30344   5.502   5.778   1.966 -0.0835 -0.7279 -0.1228
 7410WAT      O30345   5.368   3.589   3.707 -0.2488  0.5619 -0.4574
 7410WAT     H130346   5.378   3.673   3.728  0.3750  1.0961 -2.5638
 7410WAT     H230347   5.425   3.548   3.758 -0.5265  1.4193  0.5728
 7410WAT    EPW30348   5.378   3.595   3.718  0.0515  0.5454  0.1381
 7411WAT      O30349   4.680   6.934   6.330  0.2141 -0.0885 -0.1961
 7411WAT     H130350   4.642   6.963   6.403  0.0278 -0.8615  0.0183
 7411WAT     H230351   4.636   6.976   6.267  0.8632  1.1458  0.1425
 7411WAT    EPW30352   4.668   6.945   6.331  0.4803 -0.3920 -0.2790
 7412WAT      O30353   5.465   6.124   0.143  0.1597  0.3220  0.5841
 7412WAT     H130354   5.522   6.182   0.111  0.9932  0.7867  2.7529
 7412WAT     H230355   5.437   6.160   0.217 -0.2691 -1.4825  1.3693
 7412WAT    EPW30356   5.469   6.138   0.149  0.1943 -0.0576  0.1490
 7413WAT      O30357   5.224   1.803   0.045  0.3599 -0.2173  0.4098
 7413WAT     H130358   5.309   1.783   0.037  0.0855 -1.5769  0.5521
 7413WAT     H230359   5.187   1.761  -0.023 -0.1220  1.0015 -0.1098
 7413WAT    EPW30360   5.231   1.794   0.033 -0.0303 -0.3115  0.6380
 7414WAT      O30361   1.903   6.845   4.951 -0.2998 -0.5704  0.2315
 7414WAT     H130362   1.830   6.890   4.936  0.1544 -0.0976 -0.5713
 7414WAT     H230363   1.882   6.763   4.929 -1.3913 -0.9728  2.4887
 7414WAT    EPW30364   1.889   6.840   4.946 -0.0701  0.0596 -0.2366
 7415WAT      O30365   6.450   5.961   0.481 -1.0284 -0.3704  0.0740
 7415WAT     H130366   6.396   6.000   0.536 -2.4827  0.6811 -1.9965
 7415WAT     H230367   6.398   5.929   0.418  0.6509  0.4912 -1.8975
 7415WAT    EPW30368   6.435   5.962   0.480 -0.1429  0.1330 -0.1825
 7416WAT      O30369   2.536   3.571   1.526 -0.7905 -0.3679  0.8992
 7416WAT     H130370   2.613   3.613   1.532 -1.5943  1.2079  0.6781
 7416WAT     H230371   2.525   3.561   1.440 -0.6165 -1.0190  0.9515
 7416WAT    EPW30372   2.546   3.576   1.514 -0.3232 -0.0493 -0.0989
 7417WAT      O30373   0.811   7.058   3.551 -0.2598 -0.5459  0.3101
 7417WAT     H130374   0.794   6.999   3.613  3.6285  0.8669  3.1394
 7417WAT     H230375   0.854   7.013   3.490  0.2260 -1.1807  1.1039
 7417WAT    EPW30376   0.815   7.043   3.551  0.4521 -0.1380  0.3591
 7418WAT      O30377   7.642   0.633   5.843 -0.4279 -0.3531 -0.0734
 7418WAT     H130378   7.628   0.572   5.783  3.8150 -1.7225 -0.0101
 7418WAT     H230379   7.651   0.587   5.917 -0.7433  0.7620  0.6795
 7418WAT    EPW30380   7.641   0.617   5.845 -0.5228 -0.3567 -0.3909
 7419WAT      O30381   4.810   4.993   3.207 -0.2930  0.5839 -0.0433
 7419WAT     H130382   4.835   4.926   3.157 -1.3673  0.1088  0.0213
 7419WAT     H230383   4.733   4.967   3.239  0.0399  1.1763  1.3071
 7419WAT    EPW30384   4.802   4.979   3.204  0.9762 -0.9800  0.2757
 7420WAT      O30385   5.195   7.548   5.940 -0.4547  0.1737 -0.4162
 7420WAT     H130386   5.150   7.489   5.894  0.0972  0.4015 -1.2691
 7420WAT     H230387   5.144   7.563   6.010 -1.9698  0.8050 -1.5861
 7420WAT    EPW30388   5.181   7.542   5.943 -0.3559 -0.2431  0.3202
 7421WAT      O30389   7.168   6.871   4.237  0.0856 -0.1854  0.3037
 7421WAT     H130390   7.126   6.849   4.164 -0.1522  1.6446 -0.1505
 7421WAT     H230391   7.235   6.919   4.209  0.8181 -0.6453  1.2054
 7421WAT    EPW30392   7.172   6.875   4.222 -0.3538  0.2648 -0.0100
 7422WAT      O30393   4.654   5.017   4.843 -0.5506 -0.1214 -0.2468
 7422WAT     H130394   4.572   4.993   4.856  0.0245 -1.1598  2.0106
 7422WAT     H230395   4.699   4.965   4.897  1.3963  1.7200  0.0387
 7422WAT    EPW30396   4.649   5.006   4.853  0.2425  0.5445  0.3683
 7423WAT      O30397   1.772   1.683   1.851 -0.6435  0.3481  0.5411
 7423WAT     H130398   1.740   1.758   1.819 -1.2626 -0.0375  0.2556
 7423WAT     H230399   1.767   1.628   1.784  2.4263  0.7509 -0.1833
 7423WAT    EPW30400   1.767   1.686   1.836 -0.0219 -0.0082  0.1843
 7424WAT      O30401   0.657   5.931   7.119 -0.6918  0.2931  0.3707
 7424WAT     H130402   0.706   5.859   7.114 -1.4401 -0.2054 -0.0821
 7424WAT     H230403   0.588   5.911   7.070 -0.3147  1.8155 -0.8623
 7424WAT    EPW30404   0.654   5.918   7.111 -0.1193 -0.2571 -0.6418
 7425WAT      O30405   0.004   3.486   0.076  0.1316  0.8964  0.6252
 7425WAT     H130406   0.043   3.475   0.153 -1.2157 -1.6612  1.0701
 7425WAT     H230407  -0.048   3.555   0.088 -0.2019  0.4262  2.1137
 7425WAT    EPW30408   0.002   3.494   0.089  1.1220  0.0084  0.4235
 7426WAT      O30409   0.896   3.792   4.316  0.0072  0.1070  0.3471
 7426WAT     H130410   0.848   3.733   4.359  1.0085 -0.4757  0.7109
 7426WAT     H230411   0.904   3.858   4.372 -0.2333  0.1372  0.3459
 7426WAT    EPW30412   0.890   3.793   4.330  0.4808 -0.0187 -0.4439
 7427WAT      O30413   7.078   5.401   4.126  0.5793 -0.2809  0.2864
 7427WAT     H130414   7.034   5.376   4.197 -0.2333 -0.3687 -0.2317
 7427WAT     H230415   7.119   5.474   4.152 -1.6752  1.1144  0.1943
 7427WAT    EPW30416   7.078   5.408   4.140  0.2073 -0.0751 -0.1160
 7428WAT      O30417   3.566   6.428   7.120 -0.1119  0.0114  0.0825
 7428WAT     H130418   3.480   6.441   7.120 -0.0224  0.6042 -0.8212
 7428WAT     H230419   3.595   6.483   7.181 -0.4424 -0.8536  1.0767
 7428WAT    EPW30420   3.558   6.438   7.129  0.2406 -1.2223  0.3187
 7429WAT      O30421   6.171   7.027   7.420  0.0068  0.1295 -0.3640
 7429WAT     H130422   6.178   6.950   7.462 -0.1441  0.1872 -0.2341
 7429WAT     H230423   6.162   7.085   7.484 -0.2879  0.2112 -0.4769
 7429WAT    EPW30424   6.171   7.024   7.436  0.7046 -0.3064 -0.3191
 7430WAT      O30425   4.916   3.098   4.800  0.0121  0.2328  0.0652
 7430WAT     H130426   4.833   3.076   4.785  0.1708 -2.0567  1.9628
 7430WAT     H230427   4.926   3.170   4.753 -2.7117 -0.0185 -1.1300
 7430WAT    EPW30428   4.905   3.105   4.791 -0.3036 -0.4131 -0.9354
 7431WAT      O30429   5.185   4.131   4.385  0.1952 -0.1052  0.1918
 7431WAT     H130430   5.215   4.094   4.458  2.2931  0.0847 -0.5135
 7431WAT     H230431   5.241   4.105   4.324  0.7131  2.7376 -0.6641
 7431WAT    EPW30432   5.197   4.122   4.387 -0.4120  0.0496  0.8878
 7432WAT      O30433   4.475   2.085   4.440 -0.2886 -0.1270 -0.1807
 7432WAT     H130434   4.471   2.011   4.486  3.0232 -1.1327 -1.2405
 7432WAT     H230435   4.527   2.065   4.373  1.5002  3.3919 -0.0585
 7432WAT    EPW30436   4.482   2.071   4.437  0.0313  0.1736 -0.0493
 7433WAT      O30437   0.572   5.235   0.097 -0.7585  0.3269 -0.2420
 7433WAT     H130438   0.500   5.273   0.067 -0.1558  2.5690  0.9239
 7433WAT     H230439   0.541   5.167   0.143 -2.0560  0.7098 -0.4967
 7433WAT    EPW30440   0.557   5.230   0.099  0.2730 -0.4517 -0.4211
 7434WAT      O30441   7.040   6.440   7.555  0.6992 -0.1627  0.0840
 7434WAT     H130442   6.981   6.493   7.520 -1.5308 -0.7962  2.5384
 7434WAT     H230443   7.089   6.494   7.604  0.0025 -0.0445  0.6605
 7434WAT    EPW30444   7.039   6.456   7.557  0.2005 -0.1564 -0.1831
 7435WAT      O30445   5.989   1.524   5.156 -0.0675 -0.1325 -0.6491
 7435WAT     H130446   5.915   1.543   5.199  0.6714 -1.0599  1.1570
 7435WAT     H230447   5.988   1.579   5.089 -2.5098 -0.2724 -0.8303
 7435WAT    EPW30448   5.978   1.535   5.153  0.5739  0.3379 -0.2393
 7436WAT      O30449   7.614   3.996   5.433  0.0375  0.6036 -0.2390
 7436WAT     H130450   7.567   4.043   5.377 -1.3405  1.1651  1.2917
 7436WAT     H230451   7.664   4.056   5.473  1.1311  0.1869 -0.9147
 7436WAT    EPW30452   7.615   4.011   5.431  0.2238  0.1797  0.0270
 7437WAT      O30453   6.457   5.846   6.623 -0.7051  0.3371  0.2086
 7437WAT     H130454   6.543   5.854   6.620 -0.6436 -0.5191 -0.6371
 7437WAT     H230455   6.429   5.929   6.627  0.1280  0.6625 -0.3555
 7437WAT    EPW30456   6.465   5.859   6.623  0.4947  0.4553  0.0583
 7438WAT      O30457   1.342   2.239   2.263 -0.5020 -0.1098 -0.5195
 7438WAT     H130458   1.334   2.325   2.275  0.6218 -0.0262 -0.2282
 7438WAT     H230459   1.394   2.214   2.329 -0.9794 -1.0459 -0.4824
 7438WAT    EPW30460   1.349   2.248   2.275  0.2417  0.0892  0.1558
 7439WAT      O30461   6.582   0.409   0.318  0.3037  0.8866  0.4730
 7439WAT     H130462   6.596   0.495   0.314  0.6980  0.7801 -0.6051
 7439WAT     H230463   6.506   0.397   0.276  1.3090  0.4925 -1.3502
 7439WAT    EPW30464   6.573   0.420   0.311  0.0071  0.1597  0.4581
 7440WAT      O30465   6.369   5.663   5.074 -0.4723 -0.7022 -0.3497
 7440WAT     H130466   6.302   5.630   5.029 -0.0180  0.0388 -1.6292
 7440WAT     H230467   6.331   5.702   5.142 -1.3894  0.1239 -1.3097
 7440WAT    EPW30468   6.354   5.664   5.078 -0.2269  0.3891 -0.2734
 7441WAT      O30469   0.857   6.782   0.183  0.0084 -0.3153  0.5624
 7441WAT     H130470   0.938   6.762   0.210  0.3052 -0.4730 -0.3937
 7441WAT     H230471   0.816   6.706   0.181  1.2842 -1.1817 -3.5655
 7441WAT    EPW30472   0.863   6.768   0.187  0.0901  0.0944 -0.0706
 7442WAT      O30473   3.924   5.617   2.973  0.1335 -0.8757  0.4289
 7442WAT     H130474   3.898   5.605   2.890 -0.2551 -1.2227  0.5950
 7442WAT     H230475   3.981   5.683   2.967  2.3912 -2.7815 -0.5283
 7442WAT    EPW30476   3.928   5.625   2.960  0.4374  0.0251  0.3029
 7443WAT      O30477   3.200   1.775   1.026  0.1063 -1.0988 -0.3077
 7443WAT     H130478   3.113   1.778   1.037  0.2236 -2.1823  1.3753
 7443WAT     H230479   3.210   1.772   0.940 -1.4919 -0.3965 -0.5577
 7443WAT    EPW30480   3.189   1.775   1.015 -0.5739  0.7384 -0.1342
 7444WAT      O30481   1.487   0.631   6.232  0.0319  0.1866  0.6551
 7444WAT     H130482   1.563   0.622   6.191  0.2317  0.9524  0.8426
 7444WAT     H230483   1.466   0.549   6.255 -0.0945 -0.2691 -0.9764
 7444WAT    EPW30484   1.495   0.617   6.230  0.8194 -0.8263  0.7367
 7445WAT      O30485   0.325   6.839   1.244  0.1087  0.4021 -0.3383
 7445WAT     H130486   0.260   6.867   1.194 -2.7252 -1.2318  2.1144
 7445WAT     H230487   0.354   6.911   1.283 -0.8221  1.0639 -0.8417
 7445WAT    EPW30488   0.320   6.854   1.242  0.5856  0.4354 -0.1307
 7446WAT      O30489   4.223   7.241   4.926  0.0893 -0.1312  0.6259
 7446WAT     H130490   4.208   7.270   4.845 -0.1295  1.2090  1.1082
 7446WAT     H230491   4.303   7.207   4.922  0.5517  0.9518  0.0727
 7446WAT    EPW30492   4.233   7.241   4.914  0.2789 -0.2322 -0.0358
 7447WAT      O30493   2.179   3.342   5.150  0.1456  0.1190  0.5980
 7447WAT     H130494   2.226   3.381   5.087 -0.3444  0.5979  0.5172
 7447WAT     H230495   2.239   3.318   5.208  0.5696 -0.0057  0.1154
 7447WAT    EPW30496   2.195   3.344   5.149  0.6462 -0.6331  0.0850
 7448WAT      O30497   3.079   1.107   4.844 -0.3617  0.2834 -0.0013
 7448WAT     H130498   3.121   1.134   4.772 -0.5824 -0.0082 -0.2406
 7448WAT     H230499   3.004   1.075   4.814 -2.0875  3.3411  0.6373
 7448WAT    EPW30500   3.074   1.106   4.829  0.4657 -0.8867  0.3534
 7449WAT      O30501   2.771   2.643   2.055  0.1130 -0.5394  0.3541
 7449WAT     H130502   2.729   2.698   2.002  0.3705 -0.9097 -0.2560
 7449WAT     H230503   2.812   2.695   2.111 -1.3880 -0.1785  1.1604
 7449WAT    EPW30504   2.771   2.659   2.055  0.2825 -0.1205  0.1405
 7450WAT      O30505   2.625   6.612   0.177  0.1475 -0.5076  0.2802
 7450WAT     H130506   2.547   6.606   0.216  0.2380 -1.7513  0.3012
 7450WAT     H230507   2.635   6.535   0.138  0.1662  0.6054 -2.0648
 7450WAT    EPW30508   2.615   6.600   0.177 -0.4862 -0.2350 -0.4430
 7451WAT      O30509   6.594   0.277   6.096 -0.2426  0.7280  1.0546
 7451WAT     H130510   6.667   0.247   6.059 -0.7648  0.0007  0.5845
 7451WAT     H230511   6.536   0.275   6.030 -1.5126 -1.6584  2.1371
 7451WAT    EPW30512   6.596   0.272   6.081  0.0453 -0.1032  0.1035
 7452WAT      O30513   0.432   5.862   2.448 -0.2557 -0.4041  0.0745
 7452WAT     H130514   0.392   5.806   2.502 -1.0255 -1.2942 -1.3617
 7452WAT     H230515   0.410   5.834   2.369  0.5086  1.1082 -0.7231
 7452WAT    EPW30516   0.423   5.850   2.444 -0.3279 -0.0863 -0.0762
 7453WAT      O30517   0.604   4.146   1.899  0.6233  0.5150  0.0019
 7453WAT     H130518   0.689   4.162   1.909  0.6038 -0.1145  1.4512
 7453WAT     H230519   0.598   4.059   1.911 -0.1360  0.4479 -0.7783
 7453WAT    EPW30520   0.616   4.135   1.902 -0.2757  0.2201 -0.4839
 7454WAT      O30521   2.568   0.534   6.295  0.0224 -0.0589  0.1994
 7454WAT     H130522   2.560   0.615   6.262 -0.6861  0.6147  1.9320
 7454WAT     H230523   2.490   0.499   6.281  0.0034 -0.0812  0.3603
 7454WAT    EPW30524   2.555   0.541   6.288 -0.7325  0.0140 -0.5464
 7455WAT      O30525   2.519   1.189   4.243  0.3906 -0.6008 -0.0324
 7455WAT     H130526   2.448   1.192   4.294  0.5092 -1.0609  0.1706
 7455WAT     H230527   2.534   1.272   4.223  1.5867 -0.1120  2.4542
 7455WAT    EPW30528   2.511   1.202   4.248  0.3924 -0.2356  0.0699
 7456WAT      O30529   1.056   0.856   1.322  0.1466 -0.7513  0.2849
 7456WAT     H130530   1.102   0.880   1.392 -1.1176 -2.6777  1.9065
 7456WAT     H230531   1.079   0.773   1.310 -2.7749 -1.8327  1.2288
 7456WAT    EPW30532   1.066   0.847   1.330  1.0296  0.4172  0.4943
 7457WAT      O30533   4.360   2.011   0.961 -0.1981 -0.2770  0.0901
 7457WAT     H130534   4.396   2.090   0.956 -3.2211  1.4422  1.9452
 7457WAT     H230535   4.414   1.967   1.013  1.1527  0.7850 -0.3477
 7457WAT    EPW30536   4.373   2.016   0.968 -0.2101  0.1358  0.2893
 7458WAT      O30537   5.751   0.599   1.555  0.5920  0.0548 -0.1392
 7458WAT     H130538   5.722   0.548   1.619 -0.3711  0.1951 -0.4440
 7458WAT     H230539   5.693   0.665   1.553  0.1021 -0.3646 -1.6649
 7458WAT    EPW30540   5.738   0.601   1.564 -0.1063 -0.4080  0.4261
 7459WAT      O30541   5.862   4.392   0.032  0.5317 -0.0555 -0.4569
 7459WAT     H130542   5.883   4.467   0.070  0.5313 -0.8089  1.1089
 7459WAT     H230543   5.935   4.370  -0.012  0.5775  0.7715 -0.8000
 7459WAT    EPW30544   5.876   4.400   0.031  0.2103  0.0358 -0.1013
 7460WAT      O30545   2.451   7.240   5.388 -0.2706 -0.0684 -0.7004
 7460WAT     H130546   2.448   7.326   5.405 -0.4535  0.1528 -1.7888
 7460WAT     H230547   2.518   7.212   5.436  1.2856  1.1247 -2.0639
 7460WAT    EPW30548   2.460   7.249   5.397  0.3288 -0.3026 -0.3413
 7461WAT      O30549   4.464   3.790   5.820  0.8620  0.1862  0.3714
 7461WAT     H130550   4.435   3.708   5.808 -1.2493  0.7263  1.3787
 7461WAT     H230551   4.530   3.780   5.876 -1.3826 -0.6514  3.0687
 7461WAT    EPW30552   4.470   3.776   5.826  0.1363  0.9219 -0.0529
 7462WAT      O30553   3.025   6.390   2.917  0.3106 -0.5703  0.0768
 7462WAT     H130554   3.070   6.447   2.967 -0.1495 -0.4924  0.4114
 7462WAT     H230555   3.007   6.325   2.972 -2.9600  0.8905  1.0172
 7462WAT    EPW30556   3.029   6.389   2.933 -0.3549  0.0479 -0.2090
 7463WAT      O30557   6.963   6.666   6.790  0.5008 -0.6762 -0.3135
 7463WAT     H130558   7.012   6.595   6.775  1.7281 -0.6613  2.9675
 7463WAT     H230559   6.885   6.634   6.808  0.8324 -1.1420  0.3057
 7463WAT    EPW30560   6.959   6.651   6.790  0.1460  0.8713 -0.8465
 7464WAT      O30561   0.928   0.318   7.030 -0.7729 -0.3496  0.0529
 7464WAT     H130562   0.948   0.283   6.953 -0.6840 -0.5890  0.1857
 7464WAT     H230563   0.944   0.403   7.018  0.7682 -0.5757  0.2882
 7464WAT    EPW30564   0.933   0.326   7.017  0.0072 -0.2098  0.9806
 7465WAT      O30565   2.089   3.901   0.297 -0.3056  0.4005 -0.0676
 7465WAT     H130566   2.096   3.963   0.358 -3.4266 -0.3470  1.2156
 7465WAT     H230567   2.050   3.942   0.231 -1.6543  0.0447  0.4819
 7465WAT    EPW30568   2.084   3.916   0.296 -0.0920  0.3626 -0.2909
 7466WAT      O30569   1.581   2.426   5.965 -0.7561  0.7806 -0.0786
 7466WAT     H130570   1.643   2.384   6.010 -1.1331  1.2533  0.9014
 7466WAT     H230571   1.617   2.504   5.949 -0.6471  0.6365 -0.5636
 7466WAT    EPW30572   1.596   2.432   5.969 -0.4102  0.9447 -0.2906
 7467WAT      O30573   1.259   0.916   4.616 -0.3830  0.5559 -0.0181
 7467WAT     H130574   1.199   0.862   4.651 -0.5763  0.1240 -0.9897
 7467WAT     H230575   1.238   0.918   4.532 -1.9537  4.1648  0.2873
 7467WAT    EPW30576   1.247   0.908   4.609 -0.6423  0.1363 -0.4455
 7468WAT      O30577   6.545   2.890   2.968 -1.0445  1.0471  0.3719
 7468WAT     H130578   6.537   2.803   2.959 -0.7271  1.1690 -1.4612
 7468WAT     H230579   6.608   2.910   2.912  0.4756  2.2188  2.3869
 7468WAT    EPW30580   6.553   2.880   2.958 -0.1154 -0.2851  0.4733
 7469WAT      O30581   6.741   6.141   0.748 -0.2299  0.4598  0.0614
 7469WAT     H130582   6.824   6.121   0.733 -0.4537 -1.2262  0.8176
 7469WAT     H230583   6.714   6.178   0.674  1.0989  0.7697 -0.2862
 7469WAT    EPW30584   6.749   6.144   0.735  0.1629 -0.2921 -0.2541
 7470WAT      O30585   3.668   4.162   0.564 -0.3429 -0.6670  0.0740
 7470WAT     H130586   3.748   4.144   0.535 -0.3932 -0.3282 -0.2751
 7470WAT     H230587   3.616   4.125   0.505 -0.4528  0.7454 -0.7572
 7470WAT    EPW30588   3.672   4.154   0.551 -0.4477  0.1111 -0.7013
 7471WAT      O30589   3.232   1.080   5.061 -0.1186  0.0249  0.4280
 7471WAT     H130590   3.236   1.160   5.095  1.3177  1.1934 -2.1790
 7471WAT     H230591   3.167   1.085   5.002  0.2747 -0.5770 -0.0750
 7471WAT    EPW30592   3.223   1.092   5.057  0.0961  0.7901 -0.4115
 7472WAT      O30593   5.052   6.366   2.575 -0.4605  0.2295 -0.6771
 7472WAT     H130594   5.032   6.328   2.499 -0.7130  1.1970 -1.1025
 7472WAT     H230595   4.977   6.368   2.618 -0.2010 -0.8669 -0.1337
 7472WAT    EPW30596   5.038   6.360   2.570  0.2609  0.1588 -0.2445
 7473WAT      O30597   2.396   0.849   4.485  0.0288  0.4543 -0.2460
 7473WAT     H130598   2.394   0.762   4.481 -3.8849  0.3287  0.1163
 7473WAT     H230599   2.349   0.867   4.557  1.6393  2.9124  0.3261
 7473WAT    EPW30600   2.388   0.839   4.495 -0.0973 -0.3785  0.9724
 7474WAT      O30601   4.705   1.544   5.387  0.5857  0.0128  0.3479
 7474WAT     H130602   4.663   1.600   5.439  1.7441  0.3376  0.9588
 7474WAT     H230603   4.714   1.588   5.312  1.2934  0.5904  0.7544
 7474WAT    EPW30604   4.700   1.559   5.384 -0.3601  0.2255  0.5593
 7475WAT      O30605   0.531   7.022   4.054  0.6864 -0.1018  0.1704
 7475WAT     H130606   0.561   7.061   4.126 -3.7046 -0.3352  2.4597
 7475WAT     H230607   0.570   6.944   4.055 -0.4274 -0.7902  3.4718
 7475WAT    EPW30608   0.541   7.016   4.065 -0.1643  0.3548 -0.4554
 7476WAT      O30609   7.160   5.733   3.704  0.0632 -0.2652  0.2182
 7476WAT     H130610   7.112   5.767   3.768 -1.8076  2.2359 -2.2947
 7476WAT     H230611   7.104   5.681   3.661  0.8480 -0.7047 -0.3069
 7476WAT    EPW30612   7.145   5.730   3.707 -0.5197 -1.0071  0.0879
 7477WAT      O30613   4.229   4.064   1.866 -0.6452  0.1150  0.8429
 7477WAT     H130614   4.218   4.009   1.932 -0.3594  0.6235  1.3237
 7477WAT     H230615   4.302   4.108   1.888  1.8753 -2.3998 -1.6865
 7477WAT    EPW30616   4.238   4.063   1.879  0.2647  0.6005  0.6173
 7478WAT      O30617   6.989   0.617   4.438  0.3672 -0.2469  0.3665
 7478WAT     H130618   6.969   0.658   4.364  0.9158  1.2869  1.0235
 7478WAT     H230619   7.015   0.539   4.412  1.7580  0.6645 -1.1786
 7478WAT    EPW30620   6.990   0.612   4.423 -0.1734  0.0083 -0.2260
 7479WAT      O30621   3.011   5.656   2.317 -0.3167 -0.4186  0.3388
 7479WAT     H130622   2.933   5.656   2.357  0.1676  0.5447  1.3520
 7479WAT     H230623   3.027   5.741   2.305  0.6519 -0.6005  0.3127
 7479WAT    EPW30624   3.002   5.668   2.321 -0.3427  0.1938 -0.1551
 7480WAT      O30625   1.267   1.604   3.879  0.5171 -0.1501  0.0049
 7480WAT     H130626   1.288   1.538   3.932 -2.6080 -0.2848  1.3006
 7480WAT     H230627   1.272   1.569   3.799  1.0292 -1.2823  0.5141
 7480WAT    EPW30628   1.271   1.589   3.875  0.1815 -0.1706 -0.3607
 7481WAT      O30629   0.472   7.141   6.349 -0.0395  0.2865  0.4717
 7481WAT     H130630   0.513   7.105   6.281 -0.0984  0.7825  0.1636
 7481WAT     H230631   0.525   7.127   6.416 -0.1519 -0.5350  0.3920
 7481WAT    EPW30632   0.486   7.134   6.349  0.0781  0.2372  0.5305
 7482WAT      O30633   0.603   2.457   2.147 -0.2900  0.1943 -0.0802
 7482WAT     H130634   0.686   2.461   2.122 -0.6607  0.7391 -1.2828
 7482WAT     H230635   0.605   2.487   2.229  1.0840 -2.5143  0.9827
 7482WAT    EPW30636   0.616   2.462   2.156  0.7288 -0.2533 -0.4073
 7483WAT      O30637   3.960   7.403   5.544 -0.3047  0.3192  0.2113
 7483WAT     H130638   4.004   7.339   5.504 -0.1014  1.2366 -1.0954
 7483WAT     H230639   3.904   7.431   5.483 -0.7885  0.9951  0.9462
 7483WAT    EPW30640   3.959   7.398   5.529 -0.1072 -0.4202  0.7383
 7484WAT      O30641   0.136   2.462   6.227 -0.3026  0.4853 -0.1658
 7484WAT     H130642   0.217   2.494   6.217  0.5647 -1.2375  0.8954
 7484WAT     H230643   0.145   2.405   6.292 -2.2737 -0.1710 -0.4255
 7484WAT    EPW30644   0.149   2.459   6.235 -0.3685 -0.0422  0.0737
 7485WAT      O30645   1.281   0.743   5.909  0.2623 -0.1844  0.5281
 7485WAT     H130646   1.244   0.706   5.839 -0.1003 -0.0772  0.6647
 7485WAT     H230647   1.366   0.728   5.896  0.4132  1.5701 -0.9615
 7485WAT    EPW30648   1.288   0.736   5.897  0.5119 -0.2074 -0.3557
 7486WAT      O30649   3.651   2.298   7.018 -0.4616  0.1374 -0.2086
 7486WAT     H130650   3.604   2.260   7.080  0.9573 -0.2829  0.6349
 7486WAT     H230651   3.678   2.232   6.969 -0.0484  0.2961 -0.1959
 7486WAT    EPW30652   3.648   2.283   7.020  0.2127  0.1276  0.1776
 7487WAT      O30653   2.688   7.268   3.951 -0.2941 -0.1495 -0.0875
 7487WAT     H130654   2.707   7.344   3.990 -0.8730 -0.1770  0.2694
 7487WAT     H230655   2.761   7.221   3.959  0.0770  0.3771 -0.3291
 7487WAT    EPW30656   2.701   7.273   3.958  0.1931  0.0995 -0.6269
 7488WAT      O30657   3.943   4.557   7.378  0.0964 -0.3958 -0.4691
 7488WAT     H130658   3.869   4.549   7.424  1.5299 -1.5063  1.8423
 7488WAT     H230659   3.957   4.644   7.376 -0.3460 -0.2851  0.6558
 7488WAT    EPW30660   3.934   4.569   7.384  0.6196  0.5577  0.2210
 7489WAT      O30661   6.707   2.201   6.942 -0.2836 -0.8527 -0.3368
 7489WAT     H130662   6.777   2.212   6.993 -0.2272 -3.1205  0.1888
 7489WAT     H230663   6.644   2.177   6.998 -1.4593  0.8301 -0.8397
 7489WAT    EPW30664   6.708   2.199   6.958  0.0738 -0.0320  0.6155
 7490WAT      O30665   1.272   6.241   5.155  0.5074 -0.8947 -0.2113
 7490WAT     H130666   1.245   6.163   5.184 -1.4748  0.4067  1.7124
 7490WAT     H230667   1.314   6.275   5.223  0.4348  0.1396 -0.6626
 7490WAT    EPW30668   1.274   6.234   5.169 -0.0626 -0.2434 -0.1772
 7491WAT      O30669   7.635   3.765   2.387 -0.2439 -0.0695  0.2556
 7491WAT     H130670   7.597   3.797   2.315  0.5592  0.4334  0.0535
 7491WAT     H230671   7.665   3.687   2.362 -1.9930 -0.9539  0.6870
 7491WAT    EPW30672   7.634   3.758   2.373  0.3810  0.1703 -0.3683
 7492WAT      O30673   7.188   2.488   6.115  0.6039  0.3962  0.0189
 7492WAT     H130674   7.228   2.532   6.051  0.7077  1.5417  0.8354
 7492WAT     H230675   7.243   2.424   6.134  1.7287  1.4923  0.5907
 7492WAT    EPW30676   7.202   2.485   6.108 -0.6259  0.1644 -0.1803
 7493WAT      O30677   0.723   1.026   2.361 -0.1043 -0.5895  0.1971
 7493WAT     H130678   0.738   1.009   2.445 -0.0151 -1.9418 -0.0746
 7493WAT     H230679   0.642   1.060   2.361  0.0371 -0.2331  0.8560
 7493WAT    EPW30680   0.713   1.029   2.374  0.3757  0.6378 -0.2750
 7494WAT      O30681   4.810   3.149   4.515 -0.3950  0.4687  0.4394
 7494WAT     H130682   4.745   3.091   4.515  0.9588 -1.0843  0.3642
 7494WAT     H230683   4.769   3.224   4.494 -1.6560 -1.0542 -3.4828
 7494WAT    EPW30684   4.794   3.152   4.512 -0.0638  0.6387 -0.6820
 7495WAT      O30685   5.282   1.814   5.114 -0.1565  0.0267  0.1141
 7495WAT     H130686   5.274   1.749   5.056  0.5914  1.5628 -1.8400
 7495WAT     H230687   5.255   1.884   5.070  1.5072  1.4559  1.2217
 7495WAT    EPW30688   5.277   1.814   5.099 -0.0089  0.2654  0.1157
 7496WAT      O30689   1.838   3.384   6.457  0.2684  0.5456  0.5466
 7496WAT     H130690   1.885   3.385   6.530  0.0956 -1.4708  0.7281
 7496WAT     H230691   1.767   3.338   6.478 -0.3049  0.8669 -0.5871
 7496WAT    EPW30692   1.835   3.378   6.471 -0.3785  0.1683 -0.0436
 7497WAT      O30693   3.680   6.221   6.011  0.6866  0.1352 -0.4014
 7497WAT     H130694   3.653   6.263   5.940 -0.7165  1.8344  1.0348
 7497WAT     H230695   3.609   6.178   6.037  1.5163 -1.4651 -0.6351
 7497WAT    EPW30696   3.665   6.221   6.004 -0.5495  0.7598  0.5982
 7498WAT      O30697   6.314   1.573   1.952 -0.1265  0.3153  0.6787
 7498WAT     H130698   6.383   1.596   1.904  1.5777 -3.5686  0.9110
 7498WAT     H230699   6.301   1.643   2.003  1.8119  2.2588 -1.2766
 7498WAT    EPW30700   6.322   1.587   1.953  0.0289  0.3525  0.2546
 7499WAT      O30701   4.928   0.102   1.095  0.2676  0.3160 -0.3698
 7499WAT     H130702   4.912   0.134   1.175 -0.5411  0.1385 -0.4569
 7499WAT     H230703   4.889   0.024   1.096  2.3093 -0.7791 -0.1284
 7499WAT    EPW30704   4.920   0.096   1.107 -0.2364 -0.0276  0.2456
 7500WAT      O30705   5.361   4.996   5.338 -0.4027  0.6904  0.0249
 7500WAT     H130706   5.368   5.060   5.396 -1.1268  0.3516  0.4888
 7500WAT     H230707   5.276   4.979   5.336 -0.0856 -1.2671  1.0285
 7500WAT    EPW30708   5.350   5.003   5.346  0.0341  0.0846  0.1465
 7501WAT      O30709   3.599   6.136   6.887 -0.3656 -0.2407 -0.1205
 7501WAT     H130710   3.605   6.067   6.833 -1.5414 -0.4510 -0.0031
 7501WAT     H230711   3.521   6.171   6.867 -0.4626  0.1427  0.8890
 7501WAT    EPW30712   3.588   6.131   6.876 -0.0657 -0.5135  0.3693
 7502WAT      O30713   6.803   7.278   3.137  0.2526 -0.3212  0.3750
 7502WAT     H130714   6.765   7.355   3.152 -1.2692 -0.5662 -1.7463
 7502WAT     H230715   6.739   7.220   3.151  1.0290 -1.1277  0.7310
 7502WAT    EPW30716   6.788   7.281   3.141  0.6719  0.1411  0.2246
 7503WAT      O30717   3.408   7.422   3.461 -0.3145 -0.3539 -0.3129
 7503WAT     H130718   3.403   7.447   3.545  0.8894  1.1271 -0.6401
 7503WAT     H230719   3.469   7.475   3.428  2.0307 -3.3537 -1.2688
 7503WAT    EPW30720   3.416   7.434   3.469  0.4016  0.2710 -0.8986
 7504WAT      O30721   4.739   2.276   5.672  0.1521  0.1503  0.1644
 7504WAT     H130722   4.806   2.293   5.725 -0.6266  0.7362  0.9927
 7504WAT     H230723   4.680   2.336   5.693 -0.2736  0.2753 -1.2431
 7504WAT    EPW30724   4.740   2.287   5.683  0.0065 -0.1566  0.0662
 7505WAT      O30725   2.731   2.151   0.199  0.2789  0.2847  0.0419
 7505WAT     H130726   2.697   2.230   0.206 -1.7971 -0.6283  0.9905
 7505WAT     H230727   2.666   2.103   0.166  1.6065 -0.9746 -0.9242
 7505WAT    EPW30728   2.717   2.155   0.195 -0.0945 -0.2250 -0.2733
 7506WAT      O30729   0.910   1.973   5.845  0.5577 -0.4070  0.0992
 7506WAT     H130730   0.831   2.007   5.832  0.9373  0.0350 -1.1851
 7506WAT     H230731   0.965   2.035   5.817  1.3700 -0.7578  0.8480
 7506WAT    EPW30732   0.907   1.987   5.839 -0.1531  0.1937 -0.2350
 7507WAT      O30733   3.734   0.831   4.302  0.0592 -0.4820  0.1393
 7507WAT     H130734   3.714   0.849   4.219 -1.7640 -2.0819  0.1546
 7507WAT     H230735   3.692   0.893   4.347 -1.4990 -1.3402 -0.0497
 7507WAT    EPW30736   3.725   0.843   4.297 -0.0838  0.2035 -0.1432
 7508WAT      O30737   0.242   6.756   5.680 -0.4075  0.4577  0.0059
 7508WAT     H130738   0.311   6.742   5.732 -2.2013 -1.0870  2.1314
 7508WAT     H230739   0.196   6.682   5.687 -1.9106  1.1271 -1.9894
 7508WAT    EPW30740   0.246   6.743   5.689  0.8387  0.4502 -0.0251
 7509WAT      O30741   7.112   1.964   5.070 -0.4644 -0.1315 -0.7190
 7509WAT     H130742   7.145   1.917   5.004 -1.1985 -1.3767 -0.2452
 7509WAT     H230743   7.056   2.018   5.030 -1.2378 -1.1771 -1.1098
 7509WAT    EPW30744   7.108   1.965   5.054 -0.0734 -0.2123 -0.0167
 7510WAT      O30745   4.170   5.030   1.485 -0.0469  0.4473  0.5276
 7510WAT     H130746   4.225   4.994   1.428 -1.3517  1.4419 -1.4602
 7510WAT     H230747   4.112   4.967   1.501 -0.4197  0.5748 -0.2998
 7510WAT    EPW30748   4.169   5.016   1.479  0.3586  0.2599 -0.5247
 7511WAT      O30749   2.585   3.497   4.593 -0.4929 -1.0067  0.0312
 7511WAT     H130750   2.595   3.576   4.557 -1.7129 -0.2130  1.3239
 7511WAT     H230751   2.554   3.448   4.528 -0.9480 -0.0810 -0.4685
 7511WAT    EPW30752   2.582   3.502   4.578 -0.0889  0.3574  0.0067
 7512WAT      O30753   0.433   2.921   4.374 -0.6610  0.2222  0.1291
 7512WAT     H130754   0.405   2.966   4.443  0.3159  0.4494  0.3952
 7512WAT     H230755   0.458   2.845   4.409  0.8754  0.7450  0.2177
 7512WAT    EPW30756   0.432   2.916   4.390 -0.0330  0.2291 -0.8300
 7513WAT      O30757   6.480   0.223   7.390 -0.3588  0.2082 -0.1735
 7513WAT     H130758   6.507   0.269   7.321  1.8492 -2.5355 -1.3716
 7513WAT     H230759   6.394   0.213   7.377 -0.4445  1.8944 -1.1044
 7513WAT    EPW30760   6.471   0.228   7.378 -1.3604 -0.3316 -0.0696
 7514WAT      O30761   4.123   6.546   5.093  0.3040  0.1252  0.4861
 7514WAT     H130762   4.172   6.483   5.129  2.0592  0.0141 -1.8479
 7514WAT     H230763   4.064   6.501   5.046  1.1368  0.1299 -0.6348
 7514WAT    EPW30764   4.122   6.530   5.091  0.2820 -0.1553 -0.7135
 7515WAT      O30765   0.104   1.744   0.497 -0.6003  0.2156 -0.3570
 7515WAT     H130766   0.113   1.731   0.583 -0.4310  0.9028 -0.2626
 7515WAT     H230767   0.038   1.801   0.492 -0.1790  0.6912 -0.6348
 7515WAT    EPW30768   0.095   1.751   0.509 -0.4768  0.1439 -0.1516
 7516WAT      O30769   2.367   7.116   2.626 -0.3817  0.2445 -0.4945
 7516WAT     H130770   2.355   7.099   2.710 -1.4456  0.8953 -0.4983
 7516WAT     H230771   2.400   7.042   2.594  0.2670  0.0728  0.5286
 7516WAT    EPW30772   2.370   7.102   2.634 -0.0993  0.0962 -0.1843
 7517WAT      O30773   7.041   3.321   5.101 -0.0048  0.6393  0.5323
 7517WAT     H130774   6.977   3.334   5.158 -1.2931  1.0727 -0.9442
 7517WAT     H230775   7.057   3.401   5.069  0.6341  0.4022  0.2320
 7517WAT    EPW30776   7.034   3.335   5.105 -0.4027  0.3261  0.5222
 7518WAT      O30777   6.298   5.244   5.715 -0.5976  0.1892 -0.1045
 7518WAT     H130778   6.311   5.221   5.632  1.0081 -1.3704  0.5185
 7518WAT     H230779   6.211   5.245   5.722 -0.7761  0.6465 -1.8552
 7518WAT    EPW30780   6.287   5.240   5.704 -0.4661 -0.0335  0.3661
 7519WAT      O30781   5.503   1.634   5.217 -0.1046 -0.1111  0.4621
 7519WAT     H130782   5.483   1.553   5.243  1.4044 -0.8778 -0.5980
 7519WAT     H230783   5.431   1.659   5.174 -0.6287 -0.8568  0.8691
 7519WAT    EPW30784   5.490   1.625   5.214  0.6169 -0.3235 -0.3520
 7520WAT      O30785   3.589   4.695   1.021  0.8241 -0.1866 -0.4225
 7520WAT     H130786   3.536   4.757   1.050 -0.4615 -1.0908 -0.7527
 7520WAT     H230787   3.632   4.733   0.955  0.8198  0.6465  0.0446
 7520WAT    EPW30788   3.588   4.710   1.015  0.1580 -0.0980 -0.4444
 7521WAT      O30789   2.419   3.429   5.046  0.2034 -0.1673  0.0227
 7521WAT     H130790   2.418   3.446   4.960 -0.3275 -0.1808  0.0233
 7521WAT     H230791   2.501   3.447   5.070 -0.3443  2.7658  0.0871
 7521WAT    EPW30792   2.431   3.434   5.037 -0.2851 -0.2119 -0.5204
 7522WAT      O30793   1.115   1.877   2.937 -0.4317 -0.0573  0.0976
 7522WAT     H130794   1.123   1.918   2.861 -1.7893  0.7199  0.3409
 7522WAT     H230795   1.166   1.923   2.991  0.1070 -0.2846 -0.2120
 7522WAT    EPW30796   1.123   1.890   2.934 -0.0847 -0.5477  0.0962
 7523WAT      O30797   2.239   1.336   6.357 -0.2483  0.2695  0.1973
 7523WAT     H130798   2.317   1.373   6.368 -0.1720  0.1112  0.1895
 7523WAT     H230799   2.208   1.327   6.438 -0.0620 -0.0888  0.2293
 7523WAT    EPW30800   2.246   1.340   6.371  0.4363 -0.1142  0.3310
 7524WAT      O30801   4.498   1.578   0.462 -0.8018 -0.2897 -0.3100
 7524WAT     H130802   4.453   1.588   0.536 -2.9725 -1.2986 -1.3860
 7524WAT     H230803   4.545   1.506   0.476 -1.6569 -0.8165 -0.0937
 7524WAT    EPW30804   4.498   1.569   0.475  0.0153 -0.0974 -0.4083
 7525WAT      O30805   7.577   0.153   7.092 -0.0348  0.2724  0.5348
 7525WAT     H130806   7.577   0.180   7.175 -0.4579 -0.1224  0.6625
 7525WAT     H230807   7.612   0.073   7.097  1.0090  0.6936  0.1859
 7525WAT    EPW30808   7.582   0.145   7.105 -0.0895  0.2254  0.0864
 7526WAT      O30809   1.451   0.596   4.606 -0.5806 -0.1634 -0.0390
 7526WAT     H130810   1.454   0.655   4.671 -1.0671  1.0385 -1.0635
 7526WAT     H230811   1.514   0.539   4.627 -0.2780  0.5671  1.1409
 7526WAT    EPW30812   1.461   0.597   4.619 -0.1035 -0.5301  0.0797
 7527WAT      O30813   1.395   1.477   2.411  0.2049 -0.0958 -0.2594
 7527WAT     H130814   1.349   1.509   2.477 -0.0452  0.7305 -0.8146
 7527WAT     H230815   1.477   1.503   2.428  0.3214 -0.7875  0.2600
 7527WAT    EPW30816   1.400   1.485   2.423 -0.1789 -0.5647 -0.0920
 7528WAT      O30817   3.723   1.464   3.197  0.1994 -0.1048  0.8560
 7528WAT     H130818   3.701   1.542   3.165 -0.6618 -0.2030  1.1709
 7528WAT     H230819   3.653   1.441   3.244 -0.3493 -1.8624 -0.6907
 7528WAT    EPW30820   3.709   1.472   3.199  0.2283 -0.2490 -0.2283
 7529WAT      O30821   7.334   6.509   6.374 -0.2207  0.0288 -0.0526
 7529WAT     H130822   7.385   6.568   6.334  1.1659 -1.2912 -0.2996
 7529WAT     H230823   7.351   6.522   6.459  0.6999 -0.5236 -0.1400
 7529WAT    EPW30824   7.344   6.520   6.380  0.2924 -0.6185  0.3770
 7530WAT      O30825   5.342   4.015   4.199 -0.4365 -0.1418 -0.1980
 7530WAT     H130826   5.371   4.075   4.142 -0.5613  0.7340  0.6266
 7530WAT     H230827   5.381   3.942   4.174  1.3653  0.6994 -0.0205
 7530WAT    EPW30828   5.352   4.013   4.187 -0.3487 -0.2736  0.5319
 7531WAT      O30829   2.702   1.055   0.739 -0.3996 -0.1777  0.0633
 7531WAT     H130830   2.645   0.989   0.748 -0.4782 -0.0645  0.4433
 7531WAT     H230831   2.687   1.084   0.659 -1.4476  0.3574  0.4321
 7531WAT    EPW30832   2.691   1.050   0.729  0.0578 -1.3193  0.1216
 7532WAT      O30833   5.593   0.551   1.144 -0.2366 -0.0969 -0.0509
 7532WAT     H130834   5.520   0.503   1.141  0.5159 -1.4063  1.5234
 7532WAT     H230835   5.649   0.507   1.094 -0.3879  0.6978 -0.9384
 7532WAT    EPW30836   5.590   0.537   1.136 -0.2834  0.5763  0.1721
 7533WAT      O30837   6.677   6.513   3.730 -0.2367  0.2588 -0.2410
 7533WAT     H130838   6.605   6.505   3.681 -1.5520  0.4471  1.5684
 7533WAT     H230839   6.716   6.584   3.697 -2.2962  1.7898  0.3888
 7533WAT    EPW30840   6.672   6.522   3.718  0.5419 -0.3096  0.0444
 7534WAT      O30841   4.820   3.841   5.483 -0.0165  0.3740 -0.0703
 7534WAT     H130842   4.822   3.765   5.440  0.4623  0.2698  0.1299
 7534WAT     H230843   4.737   3.848   5.510  0.3280 -0.9224  1.4143
 7534WAT    EPW30844   4.808   3.831   5.481  0.4224 -0.3026 -0.0002
 7535WAT      O30845   6.727   3.998   5.201 -0.4041  0.1887 -0.2208
 7535WAT     H130846   6.678   4.057   5.241  0.1167  1.2144 -1.0464
 7535WAT     H230847   6.683   3.981   5.127  0.1439  0.6436 -0.6662
 7535WAT    EPW30848   6.713   4.004   5.196 -0.0816  0.2587 -0.2453
 7536WAT      O30849   4.013   1.400   1.471 -0.4603  0.0909 -0.1735
 7536WAT     H130850   4.012   1.350   1.542 -1.6967 -1.4260 -1.1695
 7536WAT     H230851   4.035   1.344   1.407 -2.4091  0.6383 -1.4286
 7536WAT    EPW30852   4.016   1.384   1.472 -0.3363  0.0240 -0.0491
 7537WAT      O30853   6.668   2.111   3.570 -0.4872  0.2568  0.2499
 7537WAT     H130854   6.613   2.156   3.620 -1.0515 -0.1136 -0.0355
 7537WAT     H230855   6.681   2.164   3.501 -0.0849  0.5597  0.5526
 7537WAT    EPW30856   6.662   2.126   3.567 -0.2199  0.1863 -0.5005
 7538WAT      O30857   5.844   7.374   3.838 -0.2064 -0.5132  0.2872
 7538WAT     H130858   5.919   7.398   3.877 -0.4179 -0.4820  0.6852
 7538WAT     H230859   5.869   7.313   3.781  0.2303  0.0820 -0.1710
 7538WAT    EPW30860   5.859   7.368   3.836  0.6057 -0.2828 -0.4497
 7539WAT      O30861   3.220   1.417   7.344  0.1913  0.1623 -0.1368
 7539WAT     H130862   3.209   1.345   7.392  1.3132  0.2564  0.3082
 7539WAT     H230863   3.298   1.405   7.306  2.2086  2.5397  2.6893
 7539WAT    EPW30864   3.230   1.405   7.346  0.3655 -0.2980 -0.6029
 7540WAT      O30865   1.125   5.464   7.506  0.5996 -0.0480 -0.4058
 7540WAT     H130866   1.198   5.460   7.552 -0.0555 -0.7808  0.6092
 7540WAT     H230867   1.088   5.385   7.518 -1.7254  1.1892  1.4881
 7540WAT    EPW30868   1.130   5.452   7.514 -0.0025 -0.1948  0.0166
 7541WAT      O30869   4.252   4.434   4.931  0.6995  0.2989 -0.4214
 7541WAT     H130870   4.246   4.492   4.867  1.1517 -0.0184 -0.7546
 7541WAT     H230871   4.171   4.402   4.938  0.3239  1.3155  0.1058
 7541WAT    EPW30872   4.239   4.438   4.923 -0.4758  0.6353 -0.2793
 7542WAT      O30873   2.171   3.407   4.272  0.2290  0.5324 -0.0806
 7542WAT     H130874   2.245   3.447   4.247 -0.9501  3.9140  1.2390
 7542WAT     H230875   2.180   3.399   4.358  0.2689 -1.9352 -0.2651
 7542WAT    EPW30876   2.183   3.412   4.281 -0.1263  0.4277 -0.5320
 7543WAT      O30877   5.091   5.312   5.295  0.2198  0.4242  0.0546
 7543WAT     H130878   5.047   5.253   5.341  1.0906  0.1358  0.5367
 7543WAT     H230879   5.081   5.284   5.213  0.4970 -0.3169  0.2615
 7543WAT    EPW30880   5.083   5.299   5.290  0.0020  0.2380  0.1816
 7544WAT      O30881   0.910   0.100   5.060 -0.0442  0.3266 -0.4326
 7544WAT     H130882   0.904   0.107   4.974 -2.0567 -1.4745 -0.5494
 7544WAT     H230883   0.985   0.058   5.073  0.6290  1.2692 -1.2329
 7544WAT    EPW30884   0.920   0.095   5.049  0.0083  0.3795 -0.6504
 7545WAT      O30885   5.049   1.868   2.752  0.1836  0.2592 -0.2943
 7545WAT     H130886   5.066   1.877   2.837  1.7913 -0.5947 -0.4858
 7545WAT     H230887   5.017   1.787   2.746 -1.8986  1.0380 -0.2623
 7545WAT    EPW30888   5.047   1.857   2.764 -0.2801 -0.2690  0.2883
 7546WAT      O30889   3.712   3.167   0.819  0.8726  0.0955  0.0762
 7546WAT     H130890   3.659   3.147   0.752 -0.1746 -2.2129  1.4590
 7546WAT     H230891   3.660   3.207   0.875  1.1676 -0.0599  0.4630
 7546WAT    EPW30892   3.696   3.170   0.817 -0.2104 -0.3061  0.3877
 7547WAT      O30893  -0.018   4.209   6.369 -0.0381  0.1807 -0.1243
 7547WAT     H130894   0.035   4.142   6.387 -0.3086  0.1346  0.5179
 7547WAT     H230895   0.031   4.279   6.385  0.9726  0.2128 -2.8227
 7547WAT    EPW30896  -0.003   4.210   6.374  0.0928 -0.1564 -0.2132
 7548WAT      O30897   0.511   0.088   3.022  0.4421 -0.1240  0.1559
 7548WAT     H130898   0.436   0.091   2.978  0.2146 -1.2424  0.4397
 7548WAT     H230899   0.494   0.135   3.094  0.5796  1.0747 -0.5676
 7548WAT    EPW30900   0.497   0.095   3.026 -0.4120  0.1891  0.1128
 7549WAT      O30901   0.375   0.200   1.859 -0.6620 -0.1211 -0.4132
 7549WAT     H130902   0.351   0.242   1.931  0.2693  1.2896 -0.8728
 7549WAT     H230903   0.360   0.258   1.795 -0.7877 -1.0586 -1.2678
 7549WAT    EPW30904   0.370   0.215   1.860 -0.2230 -0.1906 -0.1096
 7550WAT      O30905   3.317   5.704   0.299  0.7482  0.7773  0.3780
 7550WAT     H130906   3.290   5.787   0.309  0.8036  0.6436  1.9158
 7550WAT     H230907   3.322   5.675   0.381  2.4299 -0.2123 -0.0371
 7550WAT    EPW30908   3.314   5.712   0.313  0.5991 -0.9839  0.3334
 7551WAT      O30909   0.868   6.991   0.904  0.8129 -0.2298 -0.0677
 7551WAT     H130910   0.837   6.951   0.833 -0.5229  1.3940 -0.4412
 7551WAT     H230911   0.854   7.075   0.889 -2.2265  0.1137  3.2329
 7551WAT    EPW30912   0.861   6.997   0.891  0.2728 -0.1708 -0.0448
 7552WAT      O30913   2.622   5.292   1.803 -0.0201 -0.7303 -0.1192
 7552WAT     H130914   2.675   5.361   1.793  1.1080 -1.5950 -0.3689
 7552WAT     H230915   2.602   5.270   1.721 -0.7114 -0.4616 -0.0271
 7552WAT    EPW30916   2.627   5.299   1.789 -0.0973  0.0801 -0.0878
 7553WAT      O30917   0.555   1.584   5.203  0.3438 -0.1032  0.3970
 7553WAT     H130918   0.582   1.615   5.280 -0.0146  1.1276  0.0459
 7553WAT     H230919   0.618   1.529   5.180  0.7100 -0.0917  1.3223
 7553WAT    EPW30920   0.568   1.581   5.211  0.0269  0.1372  0.1642
 7554WAT      O30921   7.428   1.512   3.275 -0.2493 -0.1651 -0.0567
 7554WAT     H130922   7.433   1.443   3.329 -0.8581 -1.0929 -1.1386
 7554WAT     H230923   7.371   1.486   3.214 -0.6491  1.3884 -0.3871
 7554WAT    EPW30924   7.421   1.498   3.274  0.2095 -0.7055  0.1038
 7555WAT      O30925   4.968   0.896   5.428  0.1183 -0.1186 -0.0384
 7555WAT     H130926   5.037   0.950   5.428 -1.4534  2.0052 -0.7685
 7555WAT     H230927   4.995   0.829   5.380  1.4555  1.0084 -0.9640
 7555WAT    EPW30928   4.982   0.894   5.421 -0.3733  0.8704 -0.3623
 7556WAT      O30929   5.834   3.509   4.165 -0.3352  0.0764 -0.2051
 7556WAT     H130930   5.891   3.516   4.231 -0.5718 -1.3183  0.1908
 7556WAT     H230931   5.768   3.560   4.189 -0.6673 -0.8315  0.9571
 7556WAT    EPW30932   5.833   3.517   4.179  0.5039  0.1214  0.2338
 7557WAT      O30933   0.170   3.102   1.935 -0.3895 -0.2107 -0.6460
 7557WAT     H130934   0.142   3.030   1.894 -1.0966 -0.1932 -0.2184
 7557WAT     H230935   0.096   3.146   1.951  0.0004  0.4352 -0.5694
 7557WAT    EPW30936   0.155   3.098   1.931  0.2326  0.4907 -0.0083
 7558WAT      O30937   4.092   0.070   5.583 -0.2757  0.6573  0.1976
 7558WAT     H130938   4.051   0.106   5.515 -0.8824  1.4247  0.9554
 7558WAT     H230939   4.051  -0.006   5.594 -1.6496  1.4973  1.0653
 7558WAT    EPW30940   4.080   0.064   5.574 -0.0135  0.3553  0.0410
 7559WAT      O30941   4.942   1.755   0.407  0.2865  0.9885 -0.5497
 7559WAT     H130942   4.860   1.763   0.435 -0.5153 -1.1258 -1.9939
 7559WAT     H230943   4.983   1.824   0.441 -1.4922  0.8091  2.2513
 7559WAT    EPW30944   4.936   1.767   0.416  0.1628 -0.6081 -0.3645
 7560WAT      O30945   6.413   6.162   3.932  0.3855  0.3372  0.3710
 7560WAT     H130946   6.376   6.089   3.962  1.6908 -0.1487  0.8713
 7560WAT     H230947   6.489   6.135   3.899  0.9294  1.4763  0.6378
 7560WAT    EPW30948   6.418   6.147   3.932 -0.1082 -0.0535  0.0837
 7561WAT      O30949   4.080   5.781   7.429  0.1593  0.1367 -0.3375
 7561WAT     H130950   4.162   5.765   7.402  1.1160  3.2273  0.4043
 7561WAT     H230951   4.078   5.747   7.509  0.9274  0.5274 -0.1413
 7561WAT    EPW30952   4.092   5.774   7.437  0.1003 -0.4436  0.6567
 7562WAT      O30953   4.515   7.534   3.741  0.3297  0.2057 -0.3161
 7562WAT     H130954   4.437   7.547   3.703 -0.6449 -0.2221  1.4336
 7562WAT     H230955   4.517   7.593   3.805 -0.2020 -2.0608  1.9571
 7562WAT    EPW30956   4.504   7.545   3.744 -0.0925 -0.8517 -0.2954
 7563WAT      O30957   4.206   1.246   3.040 -0.2875  0.3659  0.5183
 7563WAT     H130958   4.127   1.226   3.071  0.2315  1.0127  2.3889
 7563WAT     H230959   4.197   1.329   3.012  0.4273  1.6828  3.7515
 7563WAT    EPW30960   4.193   1.255   3.040  0.4281 -0.2457 -0.1938
 7564WAT      O30961   3.009   7.090   1.999  0.1163 -0.3019  0.0375
 7564WAT     H130962   2.974   7.020   1.960  0.5148 -0.4489 -0.0623
 7564WAT     H230963   3.045   7.056   2.072 -0.9657  0.0256  0.7442
 7564WAT    EPW30964   3.009   7.074   2.004 -0.4347  0.8559 -0.2089
 7565WAT      O30965   5.237   4.541   7.470 -0.2116  0.3036 -0.1154
 7565WAT     H130966   5.308   4.592   7.464 -0.4909  1.0615  1.9587
 7565WAT     H230967   5.264   4.465   7.439  1.1273  0.9289 -0.5693
 7565WAT    EPW30968   5.251   4.538   7.465  0.0443  0.1789  0.2468
 7566WAT      O30969   1.874   5.194   5.188 -0.3757  0.1151 -0.5179
 7566WAT     H130970   1.852   5.168   5.108 -2.1863  0.7969 -0.2927
 7566WAT     H230971   1.878   5.281   5.181  3.6557  0.0794 -0.8017
 7566WAT    EPW30972   1.872   5.203   5.175 -0.1216 -0.1991  0.2397
 7567WAT      O30973   0.939   7.319   4.843 -0.7150 -0.2359 -0.0165
 7567WAT     H130974   0.911   7.341   4.923 -1.9763  0.7069 -0.6851
 7567WAT     H230975   0.969   7.395   4.810  0.6769 -0.8043 -0.1101
 7567WAT    EPW30976   0.939   7.334   4.850 -0.2232 -0.2667  0.3257
 7568WAT      O30977   5.144   6.304   0.184  0.1456  0.3409  0.2376
 7568WAT     H130978   5.065   6.290   0.219  0.8296 -0.2872  1.5866
 7568WAT     H230979   5.199   6.290   0.250  1.4221  0.4590 -0.7565
 7568WAT    EPW30980   5.140   6.300   0.199  0.4106 -0.0342  0.1020
 7569WAT      O30981   3.754   1.753   4.363  0.3803 -0.2679 -0.4013
 7569WAT     H130982   3.726   1.691   4.418  1.9904 -2.7595 -2.1737
 7569WAT     H230983   3.681   1.794   4.339 -0.6236 -0.6647  1.6968
 7569WAT    EPW30984   3.740   1.750   4.368 -0.1721  0.8193 -0.1013
 7570WAT      O30985   3.070   7.159   3.117 -0.0153  0.4610  0.0913
 7570WAT     H130986   3.151   7.167   3.149  0.7970 -3.0566 -0.6150
 7570WAT     H230987   3.082   7.159   3.030 -0.9513  1.0133 -0.0543
 7570WAT    EPW30988   3.084   7.160   3.109 -0.2933  0.2702  0.4063
 7571WAT      O30989   0.441   1.023   1.114 -0.3732  0.4004  0.6277
 7571WAT     H130990   0.452   1.013   1.028  0.5172  1.2731  0.6161
 7571WAT     H230991   0.382   0.963   1.135 -0.0566 -0.3141 -0.4740
 7571WAT    EPW30992   0.434   1.013   1.105  0.3140  0.0408  0.7082
 7572WAT      O30993   4.900   2.554   1.068 -0.1041  0.0927 -0.3404
 7572WAT     H130994   4.894   2.591   0.989 -0.7349 -2.6455 -1.6830
 7572WAT     H230995   4.817   2.535   1.087  0.2727 -1.3960 -0.1184
 7572WAT    EPW30996   4.887   2.557   1.059  0.4275 -0.0405  0.1810
 7573WAT      O30997   1.330   7.319   4.086  0.2453  0.1105  0.6706
 7573WAT     H130998   1.372   7.250   4.120 -2.2983 -1.0440  1.7190
 7573WAT     H230999   1.323   7.298   4.002  3.6855  1.4539 -0.1203
 7573WAT    EPW31000   1.335   7.305   4.079 -0.1812  0.4447  0.3752
 7574WAT      O31001   2.443   2.838   6.981  0.1686  0.1478  0.2501
 7574WAT     H131002   2.363   2.826   6.949  0.1488  0.5994  0.1193
 7574WAT     H231003   2.437   2.913   7.025  0.6573  0.4914 -0.2477
 7574WAT    EPW31004   2.430   2.847   6.982  0.0444 -0.3951  0.2318
 7575WAT      O31005   6.911   1.306   7.274 -0.0896  0.5605  0.7769
 7575WAT     H131006   6.961   1.353   7.328 -1.0391  0.9639  1.3257
 7575WAT     H231007   6.868   1.366   7.228 -1.0553  0.2316  1.2374
 7575WAT    EPW31008   6.912   1.322   7.275  0.9246 -0.8695 -0.1006
 7576WAT      O31009   0.181   4.742   1.379  0.4123  0.1610 -0.4710
 7576WAT     H131010   0.267   4.753   1.376  0.4353 -0.2207 -2.3422
 7576WAT     H231011   0.166   4.676   1.324 -1.1294  0.6200 -0.6719
 7576WAT    EPW31012   0.191   4.734   1.371  0.0015  0.7098  0.1525
 7577WAT      O31013   5.470   6.042   6.072 -0.2090 -0.0564  0.2021
 7577WAT     H131014   5.557   6.032   6.067 -0.1558  0.8273 -0.9417
 7577WAT     H231015   5.457   6.065   6.155  0.9086  1.8616 -0.0985
 7577WAT    EPW31016   5.481   6.044   6.084  0.4007 -0.0774  0.9514
 7578WAT      O31017   3.939   5.394   5.533 -0.2087  0.0488 -0.0654
 7578WAT     H131018   3.887   5.345   5.483 -1.3332  2.1340 -1.0773
 7578WAT     H231019   3.991   5.435   5.476  0.7708 -0.0188  0.7461
 7578WAT    EPW31020   3.939   5.393   5.517 -0.1391  0.5623  0.1078
 7579WAT      O31021   4.338   0.880   4.497 -0.4425 -0.5031  0.3746
 7579WAT     H131022   4.268   0.922   4.529 -1.0995 -0.0060 -1.5342
 7579WAT     H231023   4.303   0.815   4.451  0.4245 -0.9526  0.3371
 7579WAT    EPW31024   4.322   0.877   4.495  0.2715  0.2466  0.8972
 7580WAT      O31025   5.799   3.471   0.525  0.2767 -0.0977 -0.0811
 7580WAT     H131026   5.722   3.505   0.503  0.7894 -0.7944 -3.6830
 7580WAT     H231027   5.856   3.531   0.496  1.0815 -1.1834 -0.8414
 7580WAT    EPW31028   5.796   3.485   0.517 -0.3126 -0.0306 -0.1525
 7581WAT      O31029   1.281   3.275   2.329 -0.7649  0.0520  0.1443
 7581WAT     H131030   1.218   3.242   2.380  0.9279 -1.3952  1.4558
 7581WAT     H231031   1.250   3.266   2.248 -0.3376 -5.7442  0.1734
 7581WAT    EPW31032   1.267   3.268   2.325  0.0081  0.0426  0.2049
 7582WAT      O31033   0.053   3.367   6.563 -0.4824 -0.9329 -0.2691
 7582WAT     H131034   0.070   3.440   6.608 -2.8075  1.3085 -2.6115
 7582WAT     H231035   0.129   3.326   6.559  0.9967  1.4805  0.9989
 7582WAT    EPW31036   0.067   3.372   6.569 -0.3395  0.0113  0.4579
 7583WAT      O31037   5.665   4.463   2.025  0.0415  0.8369 -0.0384
 7583WAT     H131038   5.696   4.514   1.962  1.1183  1.6934  1.1331
 7583WAT     H231039   5.579   4.463   2.011  0.2748  0.8816 -1.5749
 7583WAT    EPW31040   5.656   4.471   2.014 -0.0488 -0.6995 -0.0641
 7584WAT      O31041   2.360   0.433   3.302 -0.0261 -0.6831 -0.1616
 7584WAT     H131042   2.363   0.352   3.270 -0.6525 -0.8021  0.0807
 7584WAT     H231043   2.300   0.429   3.364  0.2230 -0.1226  0.1212
 7584WAT    EPW31044   2.352   0.420   3.306  0.1514 -0.3451 -0.0796
 7585WAT      O31045   4.648   6.457   2.341 -0.0727  0.2682 -0.4134
 7585WAT     H131046   4.601   6.529   2.330 -0.4854  0.0433 -0.1593
 7585WAT     H231047   4.632   6.435   2.424  0.4200  0.1477 -0.3503
 7585WAT    EPW31048   4.639   6.464   2.352 -0.3362 -0.1485  0.2290
 7586WAT      O31049   4.449   5.262   1.506 -0.0043 -0.2313  0.2972
 7586WAT     H131050   4.410   5.218   1.441  1.5134 -2.7471  0.9351
 7586WAT     H231051   4.513   5.305   1.466 -0.3140 -0.1659 -0.1301
 7586WAT    EPW31052   4.452   5.262   1.491 -0.2276 -0.2495  0.3784
 7587WAT      O31053   1.042   7.529   6.679 -0.1972  0.6019  0.6901
 7587WAT     H131054   1.088   7.457   6.664  0.2924  1.3004 -1.4994
 7587WAT     H231055   0.966   7.515   6.638  0.0398  1.4492 -0.0654
 7587WAT    EPW31056   1.037   7.516   6.671  0.3376  0.3427  0.5399
 7588WAT      O31057   5.020   5.823   4.916  0.1493 -0.1859  0.4387
 7588WAT     H131058   5.038   5.743   4.886  0.5890 -0.8447  2.3335
 7588WAT     H231059   4.958   5.852   4.862  1.3110 -1.0420 -1.4210
 7588WAT    EPW31060   5.013   5.815   4.904 -0.3071 -0.5832 -0.2355
 7589WAT      O31061   2.610   5.100   4.279  0.1964  0.0267 -0.3302
 7589WAT     H131062   2.685   5.107   4.235 -0.1428  0.2841 -0.8611
 7589WAT     H231063   2.599   5.179   4.314 -0.0025  0.0810 -0.5207
 7589WAT    EPW31064   2.620   5.113   4.278 -0.4178 -0.0494  0.1106
 7590WAT      O31065   7.105   3.556   5.627 -0.0435  0.3007 -0.4226
 7590WAT     H131066   7.156   3.605   5.577 -0.5984  0.4041 -0.8984
 7590WAT     H231067   7.033   3.546   5.579 -0.5513  0.3303  0.3195
 7590WAT    EPW31068   7.102   3.561   5.612 -0.2213  0.1836  0.5496
 7591WAT      O31069   3.933   0.741   7.271  0.1920  0.1854 -0.2288
 7591WAT     H131070   3.991   0.675   7.280  0.1983  0.0491 -1.1012
 7591WAT     H231071   3.984   0.810   7.254  0.1149  0.0369 -1.1423
 7591WAT    EPW31072   3.949   0.741   7.270  0.3624  0.0605  0.2992
 7592WAT      O31073   4.727   4.144   6.947 -0.0251  0.0908  0.4011
 7592WAT     H131074   4.783   4.079   6.962 -0.9234 -0.5372  1.1700
 7592WAT     H231075   4.751   4.205   7.004  0.7018  0.3783 -0.1919
 7592WAT    EPW31076   4.739   4.143   6.958 -0.4370  0.0223  0.0935
 7593WAT      O31077   0.934   6.168   1.707 -0.1430 -0.3803  0.1754
 7593WAT     H131078   0.850   6.186   1.695  0.0032 -0.6761 -1.5061
 7593WAT     H231079   0.973   6.244   1.694  0.0459 -0.7688 -1.8591
 7593WAT    EPW31080   0.927   6.182   1.703  0.3996 -0.0393  0.1368
 7594WAT      O31081   4.912   4.248   5.512  0.3128  0.2418  0.2643
 7594WAT     H131082   4.879   4.201   5.447 -0.0625 -0.0699  0.6759
 7594WAT     H231083   4.882   4.209   5.584  1.2004  0.2276  0.6436
 7594WAT    EPW31084   4.903   4.235   5.513  0.3491 -0.0161 -0.1476
 7595WAT      O31085   5.560   5.603   4.156  0.6521  0.5949 -0.5298
 7595WAT     H131086   5.563   5.552   4.227 -2.1352 -1.3842 -1.6526
 7595WAT     H231087   5.618   5.566   4.102  0.9583  0.5776 -0.1929
 7595WAT    EPW31088   5.569   5.590   4.159  0.2133  0.1221 -0.4772
 7596WAT      O31089   3.650   1.572   4.053  0.0653  0.2556  0.4784
 7596WAT     H131090   3.596   1.639   4.041 -0.1747 -0.1440 -0.7833
 7596WAT     H231091   3.635   1.548   4.136 -0.2404  1.3882  0.7646
 7596WAT    EPW31092   3.640   1.578   4.064  0.1225 -0.0824  0.0517
 7597WAT      O31093   5.608   3.690   6.714  0.1848  0.5923  0.0243
 7597WAT     H131094   5.577   3.767   6.741  0.0313  0.5280  0.0323
 7597WAT     H231095   5.693   3.694   6.735 -0.0626  0.2777  1.1416
 7597WAT    EPW31096   5.616   3.702   6.721 -0.3643  0.6262  0.2924
 7598WAT      O31097   6.915   1.601   1.436 -0.0172  0.1709 -0.0722
 7598WAT     H131098   6.867   1.544   1.481 -1.2940  0.1016 -1.4565
 7598WAT     H231099   6.989   1.557   1.420 -0.4456 -0.6115  0.0527
 7598WAT    EPW31100   6.919   1.586   1.440 -0.5452 -0.5025 -0.3551
 7599WAT      O31101   3.792   0.287   7.082 -0.5274  0.6605  0.3198
 7599WAT     H131102   3.788   0.200   7.092 -0.1141  0.4257 -1.2694
 7599WAT     H231103   3.792   0.297   6.995  1.3505  2.1472  0.4392
 7599WAT    EPW31104   3.791   0.276   7.071 -0.5518  0.3833  0.7226
 7600WAT      O31105   0.157   3.070   3.202 -0.2233 -0.0772  0.0847
 7600WAT     H131106   0.175   3.030   3.277  0.8559  1.9117  0.9764
 7600WAT     H231107   0.075   3.099   3.214  0.2316  0.9583  0.8985
 7600WAT    EPW31108   0.148   3.068   3.215 -0.0609  0.7138 -0.3867
 7601WAT      O31109   2.542   2.029   5.579  0.8066 -0.6994 -0.6039
 7601WAT     H131110   2.612   1.986   5.610  0.7760 -0.7909 -0.6611
 7601WAT     H231111   2.535   2.000   5.497  1.3479  0.1234 -0.9420
 7601WAT    EPW31112   2.551   2.018   5.571  0.0435  0.2633  0.2406
 7602WAT      O31113   6.656   3.645   6.930  0.4514  0.2970 -0.6013
 7602WAT     H131114   6.680   3.669   7.011 -0.4118  0.7218 -0.4535
 7602WAT     H231115   6.702   3.573   6.915 -0.2402 -0.4535  0.7386
 7602WAT    EPW31116   6.667   3.638   6.940  0.1745  0.0255 -0.9965
 7603WAT      O31117   0.425   0.462   6.482  0.1136 -0.0314  0.1617
 7603WAT     H131118   0.404   0.540   6.512  1.2211  0.5060 -0.3813
 7603WAT     H231119   0.500   0.476   6.439  0.8071 -1.5405  0.7913
 7603WAT    EPW31120   0.433   0.475   6.480  0.1177 -0.4371 -0.6135
 7604WAT      O31121   3.090   7.276   4.670 -0.0156 -1.4387  0.1610
 7604WAT     H131122   3.081   7.272   4.584 -2.4074 -2.2258  0.3461
 7604WAT     H231123   3.058   7.354   4.691 -2.1785 -2.3339  0.4800
 7604WAT    EPW31124   3.084   7.287   4.661 -0.4606 -0.5312  0.2382
 7605WAT      O31125   1.330   3.472   0.288  0.3373 -0.1890 -0.7539
 7605WAT     H131126   1.396   3.414   0.292  1.3995  1.0328  1.1503
 7605WAT     H231127   1.364   3.543   0.325 -1.8022  0.7695 -0.5000
 7605WAT    EPW31128   1.345   3.474   0.294 -0.1072  0.3379 -0.5900
 7606WAT      O31129   4.287   7.331   5.197  1.0950  0.5843  0.3820
 7606WAT     H131130   4.270   7.319   5.112  2.2266  0.5210  0.1456
 7606WAT     H231131   4.281   7.418   5.206  3.4442  0.8898 -0.3717
 7606WAT    EPW31132   4.283   7.342   5.186 -0.0372  0.4998 -0.1673
 7607WAT      O31133   5.239   6.012   6.841  0.0477  0.3260  0.0947
 7607WAT     H131134   5.225   5.946   6.785  0.1036  0.7195 -0.3960
 7607WAT     H231135   5.163   6.019   6.883  0.2024 -0.3732  0.5013
 7607WAT    EPW31136   5.225   6.003   6.839 -0.0383  0.3652  0.4150
 7608WAT      O31137   2.246   3.712   0.532 -0.3775 -0.0308  0.0557
 7608WAT     H131138   2.220   3.786   0.493  1.8697  0.5332 -0.5486
 7608WAT     H231139   2.172   3.672   0.554 -1.6605  2.0970 -0.1910
 7608WAT    EPW31140   2.231   3.717   0.529 -0.2203 -0.0829  0.0504
 7609WAT      O31141   0.444   0.741   4.193  0.5707 -0.3804  0.2834
 7609WAT     H131142   0.385   0.741   4.128  0.3340  0.5393  0.4786
 7609WAT     H231143   0.404   0.785   4.257  1.6341  0.6710  0.2518
 7609WAT    EPW31144   0.429   0.748   4.193  0.4660 -0.2875  0.5224
 7610WAT      O31145   4.821   0.332   6.669 -0.4189  0.0193 -0.1005
 7610WAT     H131146   4.876   0.400   6.666 -0.5762  0.1174 -1.4301
 7610WAT     H231147   4.758   0.358   6.723 -0.2506  0.7589 -0.2574
 7610WAT    EPW31148   4.820   0.346   6.676  0.0646  0.3241 -0.1902
 7611WAT      O31149   3.002   1.316   7.155  0.3346 -0.4653  0.3274
 7611WAT     H131150   3.046   1.342   7.225  2.2394 -1.3365 -0.4916
 7611WAT     H231151   2.926   1.287   7.188  0.4348  0.8354  1.7910
 7611WAT    EPW31152   2.997   1.315   7.170 -0.8623  0.1653  0.2735
 7612WAT      O31153   4.177   4.455   7.500 -0.1449  0.1981  0.1000
 7612WAT     H131154   4.121   4.521   7.504  1.4918  1.8721 -2.4370
 7612WAT     H231155   4.255   4.492   7.513  0.6600 -1.6450  1.0068
 7612WAT    EPW31156   4.181   4.470   7.503  0.1272  0.2442 -0.1660
 7613WAT      O31157   3.743   4.893   1.336 -0.0312  0.6280 -0.2349
 7613WAT     H131158   3.669   4.934   1.315 -0.4410  0.9078  1.5480
 7613WAT     H231159   3.725   4.809   1.322 -1.7644  0.3657  2.7364
 7613WAT    EPW31160   3.729   4.887   1.331 -0.0068 -0.1988  0.0282
 7614WAT      O31161   4.246   6.978   4.630 -0.1081 -0.4361 -0.4747
 7614WAT     H131162   4.314   6.929   4.653  1.5709  2.4824  1.3673
 7614WAT     H231163   4.282   7.052   4.602 -2.4708  1.3317  0.7846
 7614WAT    EPW31164   4.261   6.982   4.630 -0.2228 -0.0743  0.3308
 7615WAT      O31165   6.768   1.399   1.538 -0.3329 -0.7199  0.0960
 7615WAT     H131166   6.765   1.330   1.485 -2.0188 -0.8509  0.3407
 7615WAT     H231167   6.748   1.367   1.616  0.4521 -0.2144  0.5254
 7615WAT    EPW31168   6.765   1.384   1.542  0.1926  0.1164  0.2475
 7616WAT      O31169   5.417   6.206   3.176 -0.1151 -0.2968 -0.0291
 7616WAT     H131170   5.348   6.171   3.136 -0.8800  1.6097 -0.4902
 7616WAT     H231171   5.391   6.214   3.259  0.3778 -1.5387  0.2646
 7616WAT    EPW31172   5.403   6.202   3.183  0.1416  0.6016  0.5029
 7617WAT      O31173   0.511   1.315   5.651 -0.2982  0.1724  0.6286
 7617WAT     H131174   0.475   1.301   5.573 -1.8548  1.0147  1.1692
 7617WAT     H231175   0.445   1.306   5.707  0.8134 -0.5634  1.8933
 7617WAT    EPW31176   0.496   1.311   5.648 -0.0129  0.3692 -0.2493
 7618WAT      O31177   5.638   5.088   3.390 -0.4619 -0.4904  0.0677
 7618WAT     H131178   5.707   5.141   3.391 -2.0397  1.7157  1.9761
 7618WAT     H231179   5.665   5.018   3.434  0.5322  0.3872  0.9011
 7618WAT    EPW31180   5.653   5.086   3.396 -0.2353  0.1164 -0.0423
 7619WAT      O31181   4.124   5.682   0.082 -0.3033 -0.4948  0.0301
 7619WAT     H131182   4.150   5.599   0.078  2.0680  0.2009 -0.0517
 7619WAT     H231183   4.122   5.700   0.167  0.9685 -0.1414  0.0001
 7619WAT    EPW31184   4.127   5.672   0.094 -0.7021 -0.5285 -0.1375
 7620WAT      O31185   2.762   3.219   1.923  0.4363 -0.0235 -0.1985
 7620WAT     H131186   2.825   3.277   1.938 -0.2611  0.4627  0.9237
 7620WAT     H231187   2.692   3.268   1.905  0.5445 -0.5561 -2.4007
 7620WAT    EPW31188   2.761   3.235   1.923 -0.3214 -0.0694  0.2832
 7621WAT      O31189   4.496   3.079   4.277 -0.4909 -0.5112  0.4946
 7621WAT     H131190   4.426   3.030   4.260 -0.2704 -1.7287  2.6382
 7621WAT     H231191   4.463   3.158   4.293 -1.5011 -1.2109  2.0602
 7621WAT    EPW31192   4.481   3.083   4.277 -0.3290  0.0801  0.5364
 7622WAT      O31193   1.711   0.168   3.532 -0.3990  0.3878  0.5136
 7622WAT     H131194   1.711   0.094   3.486 -0.0661  0.8523 -0.2759
 7622WAT     H231195   1.737   0.144   3.611 -1.9671 -0.6013  0.7623
 7622WAT    EPW31196   1.715   0.154   3.537  0.0692  0.1488  0.1876
 7623WAT      O31197   2.667   2.376   1.391  0.0775 -0.7393  0.0662
 7623WAT     H131198   2.632   2.357   1.313 -0.0452  0.3172 -0.1627
 7623WAT     H231199   2.752   2.385   1.373 -0.0303  0.0902 -0.0835
 7623WAT    EPW31200   2.674   2.375   1.377  0.4540 -0.5048  0.0817
 7624WAT      O31201   1.275   1.278   5.669  0.2156 -0.7877  0.3691
 7624WAT     H131202   1.313   1.350   5.636  2.5158 -1.8745  0.4073
 7624WAT     H231203   1.190   1.295   5.664  0.6391  1.2863 -1.0770
 7624WAT    EPW31204   1.268   1.291   5.664 -0.0560  0.3487 -0.1295
 7625WAT      O31205   0.117   6.215   0.040  0.2468 -0.4973  0.5668
 7625WAT     H131206   0.086   6.247   0.115  1.0837  0.6122  0.4623
 7625WAT     H231207   0.192   6.177   0.063  1.8420  2.0784 -0.0143
 7625WAT    EPW31208   0.123   6.214   0.055 -0.1438  0.3171 -0.8255
 7626WAT      O31209   3.848   2.069   6.096  0.5276 -0.6922  0.3376
 7626WAT     H131210   3.798   2.138   6.076 -1.1676 -1.8575  0.4413
 7626WAT     H231211   3.902   2.101   6.157  3.4248  1.9951 -3.1552
 7626WAT    EPW31212   3.849   2.084   6.102  0.1617  0.4261  0.5951
 7627WAT      O31213   6.260   4.426   2.452 -0.5409  0.4232  0.5844
 7627WAT     H131214   6.194   4.381   2.487 -0.1553 -0.5243  0.1279
 7627WAT     H231215   6.297   4.465   2.521 -1.3013  0.6065  0.8968
 7627WAT    EPW31216   6.256   4.425   2.468 -0.3283 -0.0477 -0.4468
 7628WAT      O31217   2.137   4.089   0.487 -0.5363 -0.0705 -0.2743
 7628WAT     H131218   2.195   4.133   0.535  0.1543 -0.6763 -0.5181
 7628WAT     H231219   2.078   4.062   0.545 -0.1460 -0.1070  0.1143
 7628WAT    EPW31220   2.137   4.091   0.503  0.0750 -0.5347  0.1317
 7629WAT      O31221   5.462   3.390   4.589 -0.8881 -0.1152 -0.2598
 7629WAT     H131222   5.450   3.402   4.504  0.5257 -0.1583 -0.4825
 7629WAT     H231223   5.383   3.365   4.617 -1.7770  1.4518 -1.2450
 7629WAT    EPW31224   5.448   3.388   4.581  0.2419 -0.7701 -0.0232
 7630WAT      O31225   2.340   4.687   2.462 -0.3165  0.2592  0.1699
 7630WAT     H131226   2.343   4.709   2.546  0.8848 -2.0760  0.8248
 7630WAT     H231227   2.277   4.626   2.459 -0.5390  0.5154 -0.6956
 7630WAT    EPW31228   2.331   4.681   2.474 -0.0424 -0.0544 -0.1293
 7631WAT      O31229   4.727   4.806   6.176 -0.5438  0.6809  0.2890
 7631WAT     H131230   4.748   4.814   6.091 -0.5006  0.5924  0.2915
 7631WAT     H231231   4.684   4.880   6.193 -1.9095  0.0316 -0.2125
 7631WAT    EPW31232   4.724   4.819   6.166 -0.1220  0.5871 -0.1681
 7632WAT      O31233   0.343   3.270   3.283 -0.1875  0.1790 -0.0151
 7632WAT     H131234   0.369   3.323   3.218 -0.0250  1.5925  1.1579
 7632WAT     H231235   0.286   3.216   3.244 -0.1308  1.0270 -1.3240
 7632WAT    EPW31236   0.338   3.270   3.267 -0.4367  0.3926  0.4014
 7633WAT      O31237   3.346   1.154   6.149  0.4652  0.0611  0.2944
 7633WAT     H131238   3.330   1.164   6.235  0.1056  1.5196  0.0871
 7633WAT     H231239   3.313   1.075   6.132 -1.7084  0.7111  1.0405
 7633WAT    EPW31240   3.339   1.144   6.160 -0.0972 -0.4256 -0.1450
 7634WAT      O31241   4.701   5.070   7.055 -0.0594 -0.7363 -0.7213
 7634WAT     H131242   4.757   5.135   7.071 -1.7222  1.2228 -2.2895
 7634WAT     H231243   4.699   5.065   6.968 -1.0795 -1.8883 -0.6684
 7634WAT    EPW31244   4.709   5.079   7.045 -0.6390 -0.3952  0.2402
 7635WAT      O31245   3.916   7.074   3.723 -0.2695 -0.1803 -0.1806
 7635WAT     H131246   3.977   7.038   3.672  1.9129  3.3196 -0.3710
 7635WAT     H231247   3.841   7.041   3.692  1.1829 -0.8963 -3.3331
 7635WAT    EPW31248   3.914   7.064   3.711 -0.4839  0.6716 -0.1907
 7636WAT      O31249   7.483   2.352   0.393  0.1408 -0.3545  0.2257
 7636WAT     H131250   7.528   2.387   0.327  0.8609 -0.0503  0.8716
 7636WAT     H231251   7.426   2.299   0.353 -0.4268  0.9154 -0.7368
 7636WAT    EPW31252   7.481   2.350   0.377 -0.7690 -0.3617  0.1611
 7637WAT      O31253   7.621   4.883   2.564 -0.0023  0.1231 -0.2580
 7637WAT     H131254   7.671   4.952   2.581 -0.9874  1.1656 -1.3024
 7637WAT     H231255   7.558   4.888   2.624 -0.1109  0.1872 -0.3753
 7637WAT    EPW31256   7.619   4.894   2.575  0.0461  0.0338  0.0472
 7638WAT      O31257   6.440   6.097   0.804  0.3008  0.1320 -0.2861
 7638WAT     H131258   6.482   6.023   0.822  0.6009  0.5277  0.7042
 7638WAT     H231259   6.502   6.158   0.809 -0.0174  0.5066 -0.7350
 7638WAT    EPW31260   6.456   6.095   0.807 -0.2040  0.5715 -0.3784
 7639WAT      O31261   2.853   5.072   3.154 -0.2310  0.0292  0.1829
 7639WAT     H131262   2.785   5.030   3.190  0.2888 -0.3165  0.7711
 7639WAT     H231263   2.911   5.009   3.140  0.0570  0.3613 -0.1270
 7639WAT    EPW31264   2.851   5.057   3.157  0.1866  0.4343  0.1263
 7640WAT      O31265   3.865   2.573   3.323  0.4367 -0.0614 -0.2795
 7640WAT     H131266   3.871   2.613   3.246  0.8249 -2.5758 -1.6695
 7640WAT     H231267   3.838   2.636   3.377  1.5283  2.1527 -2.1405
 7640WAT    EPW31268   3.862   2.588   3.320 -0.3503  0.1101 -0.0707
 7641WAT      O31269   0.354   1.541   2.584 -0.0209  0.3266  0.0046
 7641WAT     H131270   0.313   1.614   2.558 -0.7617  0.6268  1.8504
 7641WAT     H231271   0.397   1.567   2.656  3.3225 -0.0316 -1.6908
 7641WAT    EPW31272   0.354   1.556   2.591  0.1677 -0.5684  0.8360
 7642WAT      O31273   6.486   4.467   2.848 -0.2066 -0.3200  0.2875
 7642WAT     H131274   6.485   4.463   2.935 -0.0706 -1.6305  0.2411
 7642WAT     H231275   6.571   4.465   2.828 -0.1591  1.3597  0.1463
 7642WAT    EPW31276   6.498   4.466   2.858  0.4785  0.3295 -0.6031
 7643WAT      O31277   6.740   6.791   7.213 -0.3695  0.1018  0.0032
 7643WAT     H131278   6.742   6.861   7.161  2.2191  0.8525  0.9853
 7643WAT     H231279   6.680   6.812   7.273  1.2448  2.1214  1.0212
 7643WAT    EPW31280   6.731   6.804   7.214  0.0875 -0.0979 -0.2347
 7644WAT      O31281   4.676   6.282   1.223  0.2946 -0.1367  0.3022
 7644WAT     H131282   4.649   6.207   1.261  0.0561  0.2722  0.9646
 7644WAT     H231283   4.744   6.305   1.273 -0.7454  1.0273  1.2426
 7644WAT    EPW31284   4.682   6.274   1.236 -0.1945  0.0258  0.3341
 7645WAT      O31285   7.252   1.856   3.071 -0.3666  0.7620  0.0413
 7645WAT     H131286   7.279   1.781   3.036 -0.1686 -0.1914  2.0944
 7645WAT     H231287   7.260   1.913   3.005 -1.1211 -1.0953 -1.7772
 7645WAT    EPW31288   7.257   1.854   3.056  0.6350 -0.1866 -0.1814
 7646WAT      O31289   2.568   0.741   3.777 -0.0429  0.1923 -0.0611
 7646WAT     H131290   2.488   0.766   3.752 -0.2013 -0.0080  0.2396
 7646WAT     H231291   2.560   0.730   3.863 -0.1316 -1.4127 -0.2384
 7646WAT    EPW31292   2.555   0.743   3.786 -0.6699  0.1880  0.5269
 7647WAT      O31293   3.968   6.074   3.942  0.2620  0.4135  0.2575
 7647WAT     H131294   3.901   6.045   3.990  0.4041  1.1309  0.8958
 7647WAT     H231295   4.019   6.115   4.000  2.1821 -1.6309  0.1418
 7647WAT    EPW31296   3.966   6.076   3.958  0.1914 -0.3958 -0.0877
 7648WAT      O31297   5.065   1.676   4.478 -0.1833  0.6571 -0.0494
 7648WAT     H131298   4.999   1.723   4.446 -0.2030  0.2521 -0.6109
 7648WAT     H231299   5.030   1.634   4.546 -0.3465  0.9020  0.0201
 7648WAT    EPW31300   5.050   1.677   4.483 -0.1477  0.5581 -0.4157
 7649WAT      O31301   7.315   7.420   6.268  0.5194  0.6656 -0.3505
 7649WAT     H131302   7.256   7.480   6.246 -0.1238  0.7854  1.4640
 7649WAT     H231303   7.391   7.463   6.260  0.2407  1.0354 -1.1240
 7649WAT    EPW31304   7.317   7.435   6.264 -0.1390  0.3028 -0.1369
 7650WAT      O31305   4.693   5.845   4.160  0.4082  0.6901 -0.3170
 7650WAT     H131306   4.743   5.890   4.104  0.6347  0.0678 -0.6208
 7650WAT     H231307   4.751   5.798   4.206  0.1238  0.0658 -0.5839
 7650WAT    EPW31308   4.709   5.845   4.158  0.6087 -0.1459  0.1513
 7651WAT      O31309   5.617   3.312   3.552  0.5193 -0.5181  0.9421
 7651WAT     H131310   5.671   3.378   3.572  0.5243 -0.6233  1.2784
 7651WAT     H231311   5.606   3.271   3.628  0.0146 -0.5369  0.8628
 7651WAT    EPW31312   5.623   3.316   3.566 -0.1298  0.1507 -0.2930
 7652WAT      O31313   4.299   0.298   0.855 -0.4677  0.9708 -0.2675
 7652WAT     H131314   4.282   0.217   0.883 -0.2161  1.0343  0.0788
 7652WAT     H231315   4.384   0.295   0.835 -0.4736  1.1323 -0.3146
 7652WAT    EPW31316   4.309   0.286   0.856 -0.0242 -0.0072 -0.5227
 7653WAT      O31317   0.682   2.246   0.948 -0.0242  0.2150  0.8707
 7653WAT     H131318   0.666   2.303   1.012 -1.5262  0.5833  0.2302
 7653WAT     H231319   0.629   2.272   0.884  1.4767 -0.0913 -0.5742
 7653WAT    EPW31320   0.672   2.258   0.948 -0.7806 -0.9899 -0.0927
 7654WAT      O31321   4.491   5.143   6.681 -0.5523  0.3550  0.0138
 7654WAT     H131322   4.459   5.065   6.659  1.0136 -1.4484  3.4461
 7654WAT     H231323   4.420   5.192   6.692 -1.7903 -1.4659  0.6244
 7654WAT    EPW31324   4.476   5.139   6.679  0.3400  0.3955 -0.4038
 7655WAT      O31325   4.065   6.560   3.735  0.0471 -0.2137 -0.2284
 7655WAT     H131326   4.123   6.545   3.798  0.4918 -2.1990 -1.0082
 7655WAT     H231327   4.022   6.484   3.729 -1.5623  0.6972 -0.7416
 7655WAT    EPW31328   4.067   6.546   3.743 -0.1393 -0.1179 -0.2056
 7656WAT      O31329   0.272   7.072   4.042 -0.0246  0.1206  0.8067
 7656WAT     H131330   0.236   7.041   4.115  1.3154 -2.5736  0.4643
 7656WAT     H231331   0.353   7.040   4.044  1.0013  2.4112 -0.4998
 7656WAT    EPW31332   0.278   7.062   4.053 -0.2933 -0.7934 -0.0537
 7657WAT      O31333   3.763   2.711   3.528 -0.2429 -0.6122 -0.2380
 7657WAT     H131334   3.799   2.780   3.568  0.2314  0.0457 -1.7417
 7657WAT     H231335   3.684   2.740   3.504 -0.0305 -0.5624 -0.8988
 7657WAT    EPW31336   3.757   2.726   3.531  0.0658 -0.1470  0.1111
 7658WAT      O31337   5.219   0.657   0.709  0.3189  0.9274 -0.2102
 7658WAT     H131338   5.142   0.695   0.726 -0.2551  0.6571 -1.9423
 7658WAT     H231339   5.276   0.722   0.717  0.5347  0.4397  4.5892
 7658WAT    EPW31340   5.216   0.672   0.712  0.2617 -0.3556  0.3674
 7659WAT      O31341   7.292   3.595   2.119  0.2636  0.3000  0.0348
 7659WAT     H131342   7.327   3.674   2.105  0.6036 -0.2714 -3.0476
 7659WAT     H231343   7.361   3.542   2.123  0.0441  0.0691  2.1662
 7659WAT    EPW31344   7.307   3.599   2.117  0.4618 -0.2345 -0.2211
 7660WAT      O31345   0.253   0.827   1.762  0.5054  0.0097  0.1851
 7660WAT     H131346   0.302   0.894   1.736  1.2527 -0.5615  0.0662
 7660WAT     H231347   0.172   0.858   1.758  0.6805  0.3880 -1.5498
 7660WAT    EPW31348   0.249   0.841   1.757 -0.5919  0.1207 -0.0602
 7661WAT      O31349   5.730   1.230   7.296  0.1827  0.4370  0.0116
 7661WAT     H131350   5.801   1.200   7.337  0.1651 -2.0298 -1.5220
 7661WAT     H231351   5.755   1.237   7.213 -1.1110  0.3136 -0.4199
 7661WAT    EPW31352   5.744   1.226   7.290 -0.9146 -0.0497  0.4557
 7662WAT      O31353   5.203   5.367   3.850 -0.5731  0.6325  0.0585
 7662WAT     H131354   5.152   5.382   3.781  0.7528 -1.4136 -1.5072
 7662WAT     H231355   5.281   5.400   3.826 -0.5165  1.5325  1.3762
 7662WAT    EPW31356   5.207   5.374   3.837 -0.1279  0.1965  0.1364
 7663WAT      O31357   5.580   4.062   2.845 -0.6616  0.0219  0.7025
 7663WAT     H131358   5.567   4.019   2.770  0.2254 -1.5929  1.4025
 7663WAT     H231359   5.639   4.123   2.824  0.9247 -1.5272  0.3759
 7663WAT    EPW31360   5.587   4.064   2.831  0.0697 -0.3821  0.3195
 7664WAT      O31361   3.419   2.745   1.401 -0.2500  0.4524 -0.2574
 7664WAT     H131362   3.471   2.814   1.387  1.3838 -0.8967 -1.2396
 7664WAT     H231363   3.425   2.699   1.327 -2.3432 -0.1281 -0.1365
 7664WAT    EPW31364   3.428   2.748   1.388  0.3025  0.0251 -0.4644
 7665WAT      O31365   3.053   1.596   2.718 -0.0334  0.0447  0.0652
 7665WAT     H131366   3.051   1.621   2.802  0.8641 -0.2219  0.1707
 7665WAT     H231367   3.131   1.558   2.710  0.0808  0.4876 -1.0142
 7665WAT    EPW31368   3.064   1.594   2.729  0.2090  0.2677 -0.1461
 7666WAT      O31369   6.820   3.212   0.722  0.7957  0.2943  0.7132
 7666WAT     H131370   6.840   3.163   0.653 -2.2686  3.0476 -2.4727
 7666WAT     H231371   6.780   3.156   0.776 -1.8022 -1.1178 -2.3416
 7666WAT    EPW31372   6.817   3.196   0.720 -0.3831  0.5404  0.4279
 7667WAT      O31373   4.089   7.158   2.669 -0.1504 -0.1981  0.3582
 7667WAT     H131374   4.106   7.087   2.717 -1.6652 -1.3683 -0.7582
 7667WAT     H231375   4.167   7.178   2.634  0.8863  0.4000  2.8224
 7667WAT    EPW31376   4.103   7.151   2.671  0.1358  0.0562 -0.1570
 7668WAT      O31377   0.844   5.228   2.808  0.3578  0.2110  0.0268
 7668WAT     H131378   0.843   5.264   2.728 -0.1099  1.1046  0.4209
 7668WAT     H231379   0.896   5.281   2.854 -0.1445  0.2466  0.5631
 7668WAT    EPW31380   0.851   5.241   2.803 -0.9792  0.0235 -0.1202
 7669WAT      O31381   4.800   0.351   2.887  0.5516  0.1889  0.1959
 7669WAT     H131382   4.881   0.383   2.899  0.5454  0.1438  0.3670
 7669WAT     H231383   4.763   0.410   2.834 -0.2289  1.8039  2.3648
 7669WAT    EPW31384   4.807   0.365   2.881 -0.4297 -0.1885 -0.6726
 7670WAT      O31385   4.434   5.406   5.522  0.4022  0.2353 -0.2706
 7670WAT     H131386   4.388   5.366   5.459  0.8569  0.3997 -0.7105
 7670WAT     H231387   4.514   5.372   5.513 -0.0223 -1.4582  1.6869
 7670WAT    EPW31388   4.439   5.395   5.511  0.5492 -0.2082  0.7630
 7671WAT      O31389   3.472   0.526   0.857  0.2656  0.1985 -0.7859
 7671WAT     H131390   3.499   0.477   0.790  0.3049 -1.4115  0.3489
 7671WAT     H231391   3.416   0.474   0.900 -0.1743  1.3785  0.1280
 7671WAT    EPW31392   3.468   0.511   0.854  0.8787  0.5460  0.1116
 7672WAT      O31393   4.743   6.921   0.540 -0.3308 -0.4377  0.4916
 7672WAT     H131394   4.799   6.987   0.547 -0.5603 -0.1463 -0.3863
 7672WAT     H231395   4.682   6.940   0.600  0.3712 -0.6432  1.2948
 7672WAT    EPW31396   4.742   6.934   0.550 -0.0266  0.4204  0.0321
 7673WAT      O31397   6.338   7.329   1.761 -0.5165 -0.0233  0.0546
 7673WAT     H131398   6.366   7.410   1.779  2.7851 -0.9216 -0.4161
 7673WAT     H231399   6.306   7.337   1.680  0.3268  0.7219 -0.2241
 7673WAT    EPW31400   6.337   7.342   1.752 -0.0978 -0.2574  0.1089
 7674WAT      O31401   4.434   3.902   7.459  0.2128  0.2840  0.1375
 7674WAT     H131402   4.428   3.815   7.452 -0.3415  0.4220 -2.0535
 7674WAT     H231403   4.516   3.919   7.437 -0.1294  0.3710 -1.2070
 7674WAT    EPW31404   4.445   3.892   7.455 -0.2252 -0.4187 -0.4431
 7675WAT      O31405   3.782   2.900   4.679 -0.4464 -0.3825  0.0366
 7675WAT     H131406   3.832   2.882   4.609 -0.7741 -0.8549 -0.0841
 7675WAT     H231407   3.729   2.831   4.684  0.8047 -1.2983  1.8999
 7675WAT    EPW31408   3.782   2.887   4.669  0.5334 -0.1769  0.5295
 7676WAT      O31409   7.583   7.589   5.866  0.0018 -0.0443  0.4894
 7676WAT     H131410   7.594   7.514   5.823  0.6886 -0.6966  1.7403
 7676WAT     H231411   7.561   7.563   5.946 -0.5323  1.1139  0.7325
 7676WAT    EPW31412   7.582   7.574   5.872  0.1825  0.0624 -0.0893
 7677WAT      O31413   1.578   4.461   2.281 -0.1367 -0.5224 -0.0320
 7677WAT     H131414   1.621   4.425   2.349 -0.8868  0.6643  1.1192
 7677WAT     H231415   1.640   4.508   2.241 -0.0980  0.3934  1.0448
 7677WAT    EPW31416   1.594   4.462   2.285 -0.3647 -0.0400  0.5425
 7678WAT      O31417   0.257   3.422   3.057  0.3602  0.1149 -0.4226
 7678WAT     H131418   0.258   3.505   3.082  1.6270  0.0256 -0.1000
 7678WAT     H231419   0.282   3.425   2.974 -0.9985  0.1595 -0.8528
 7678WAT    EPW31420   0.261   3.434   3.048 -0.5621  0.5439  0.2776
 7679WAT      O31421   2.933   0.669   1.690 -0.3678 -0.1374  0.5757
 7679WAT     H131422   2.952   0.637   1.769 -0.5695 -0.1040  0.6387
 7679WAT     H231423   2.964   0.750   1.693  1.3172 -0.7161 -0.0349
 7679WAT    EPW31424   2.940   0.676   1.702  0.6740  0.0548  0.2847
 7680WAT      O31425   2.904   4.990   4.571 -0.2973  1.0575  0.6053
 7680WAT     H131426   2.932   5.065   4.536  0.5552  0.2807 -0.4427
 7680WAT     H231427   2.962   4.973   4.634 -0.1532  0.9841  0.4534
 7680WAT    EPW31428   2.917   4.999   4.575  0.9372  0.0300  0.2552
 7681WAT      O31429   0.627   2.522   3.713 -0.1100  0.4347 -0.0440
 7681WAT     H131430   0.584   2.580   3.664 -1.3126  0.4897  1.0214
 7681WAT     H231431   0.653   2.568   3.782 -1.3548 -0.3306  0.9658
 7681WAT    EPW31432   0.624   2.537   3.716 -0.0239 -0.4428  0.2046
 7682WAT      O31433   6.570   0.008   6.209  0.4314  0.1724  0.3315
 7682WAT     H131434   6.576   0.094   6.197  0.4001  0.2110  0.5878
 7682WAT     H231435   6.485  -0.006   6.220  0.2191 -0.1262 -1.4085
 7682WAT    EPW31436   6.559   0.018   6.209  0.2616 -0.2894  0.6240
 7683WAT      O31437   3.619   2.631   4.047 -0.1358  0.1003 -0.3323
 7683WAT     H131438   3.575   2.611   4.120  0.2322 -1.0447 -0.4016
 7683WAT     H231439   3.641   2.715   4.059  1.1006 -0.4201  1.5067
 7683WAT    EPW31440   3.616   2.641   4.060 -0.4353  0.1963  0.0368
 7684WAT      O31441   5.719   4.051   1.507  0.3546 -0.6273  0.4970
 7684WAT     H131442   5.663   4.114   1.485 -0.7739 -0.9026  2.3313
 7684WAT     H231443   5.780   4.093   1.553  0.9315 -0.5453 -0.3144
 7684WAT    EPW31444   5.720   4.067   1.511 -0.2870  0.3202  0.0890
 7685WAT      O31445   0.521   6.843   3.373 -0.3458  0.6837 -0.3070
 7685WAT     H131446   0.521   6.766   3.331 -1.2494  0.4116  0.1557
 7685WAT     H231447   0.563   6.896   3.318  2.2053 -0.5927  0.2423
 7685WAT    EPW31448   0.528   6.839   3.359  0.7166 -0.4606  0.1033
 7686WAT      O31449   2.161   0.257   4.868  0.0427 -0.1587  0.2331
 7686WAT     H131450   2.078   0.262   4.840  0.1446 -0.8328 -0.2187
 7686WAT     H231451   2.191   0.337   4.857 -0.1501 -0.2247 -0.9065
 7686WAT    EPW31452   2.153   0.269   4.862 -0.2694 -0.0947 -0.0124
 7687WAT      O31453   1.879   0.514   4.014 -0.3670  0.0742 -0.4802
 7687WAT     H131454   1.886   0.564   4.085 -2.0720 -0.9681  0.4812
 7687WAT     H231455   1.852   0.570   3.952  1.3083  1.0250 -0.3899
 7687WAT    EPW31456   1.876   0.529   4.015  0.0993 -0.1354  0.1378
 7688WAT      O31457   0.212   3.676   2.782  0.3422 -0.0017 -0.1211
 7688WAT     H131458   0.159   3.616   2.747  0.2688 -1.1796  1.8886
 7688WAT     H231459   0.157   3.741   2.804 -0.5161 -1.5048  2.5974
 7688WAT    EPW31460   0.196   3.677   2.780  0.3538  1.1401  0.1062
 7689WAT      O31461   6.081   3.316   3.914 -0.0725  0.0578  0.2201
 7689WAT     H131462   6.030   3.260   3.871 -1.8338  1.5879  0.1867
 7689WAT     H231463   6.108   3.270   3.983  0.0904 -1.3933 -0.7728
 7689WAT    EPW31464   6.077   3.301   3.918 -0.2842  0.6276  0.0432
 7690WAT      O31465   4.776   0.579   7.250  0.0594 -0.2033  0.0780
 7690WAT     H131466   4.749   0.498   7.265 -0.4251  0.2254  1.6805
 7690WAT     H231467   4.848   0.587   7.299  0.2238  0.2741 -0.2233
 7690WAT    EPW31468   4.783   0.568   7.259 -0.4528 -0.5934  0.3623
 7691WAT      O31469   7.109   6.807   4.991  0.1272  0.1478  0.4562
 7691WAT     H131470   7.110   6.842   5.071  2.1397 -1.0032  1.0069
 7691WAT     H231471   7.032   6.766   4.987  0.0941  0.0263  1.8984
 7691WAT    EPW31472   7.098   6.806   5.002 -0.3082 -0.4662  0.3776
 7692WAT      O31473   0.187   0.143   3.481 -0.0028  0.3242  0.1779
 7692WAT     H131474   0.214   0.155   3.399 -0.2515  0.3594  0.0983
 7692WAT     H231475   0.199   0.058   3.494 -0.3594  0.2320 -0.0474
 7692WAT    EPW31476   0.193   0.132   3.470 -0.4749  0.0484  0.1479
 7693WAT      O31477   1.027   4.011   0.030 -0.0478 -0.1563 -0.0457
 7693WAT     H131478   1.029   3.990  -0.055  0.9508 -1.2088  0.1983
 7693WAT     H231479   1.111   4.028   0.048 -0.1133 -0.7862  0.9077
 7693WAT    EPW31480   1.040   4.010   0.020 -0.0222 -0.3373 -0.3039
 7694WAT      O31481   1.543   0.756   3.554 -0.0613  0.3768 -0.1760
 7694WAT     H131482   1.617   0.724   3.519 -0.1676 -0.3032  0.2069
 7694WAT     H231483   1.562   0.840   3.568  0.3836  0.3857 -0.7775
 7694WAT    EPW31484   1.557   0.764   3.551 -0.4645  0.1862 -0.0303
 7695WAT      O31485   4.788   2.799   4.564 -0.1594 -0.2868 -0.4885
 7695WAT     H131486   4.717   2.760   4.531 -2.8989  1.0481  3.2436
 7695WAT     H231487   4.817   2.741   4.622 -0.0358  0.3919  0.1339
 7695WAT    EPW31488   4.782   2.784   4.567  0.7280 -0.5178  0.0112
 7696WAT      O31489   4.758   3.895   0.798 -0.0083 -0.1749 -0.0798
 7696WAT     H131490   4.754   3.981   0.812  0.1205  0.2372 -2.1688
 7696WAT     H231491   4.788   3.863   0.873  1.6450  1.7971  0.1820
 7696WAT    EPW31492   4.762   3.903   0.811 -0.2529 -0.2384 -0.2008
 7697WAT      O31493   6.914   1.068   3.587 -0.2402 -0.0402 -0.1816
 7697WAT     H131494   6.984   1.120   3.594 -1.0123  1.0692 -0.4892
 7697WAT     H231495   6.847   1.122   3.600 -1.0554 -1.0390 -0.1404
 7697WAT    EPW31496   6.914   1.084   3.590 -0.0328  0.0095  0.3697
 7698WAT      O31497   3.535   2.275   6.185  0.2949  0.4107  0.1817
 7698WAT     H131498   3.591   2.313   6.130  0.4474 -0.6291 -0.3844
 7698WAT     H231499   3.468   2.331   6.186  0.6481  0.8650 -0.3826
 7698WAT    EPW31500   3.533   2.289   6.177  0.0464 -0.7684 -0.1262
 7699WAT      O31501   3.197   0.733   1.967  0.2692 -0.4504  0.2083
 7699WAT     H131502   3.163   0.783   2.030 -1.8976 -0.1135 -1.1160
 7699WAT     H231503   3.272   0.772   1.947 -0.2592  0.9334  0.8105
 7699WAT    EPW31504   3.203   0.746   1.973  0.3248 -0.3571  0.2992
 7700WAT      O31505   5.520   2.489   0.387  0.3727 -0.5641 -0.1498
 7700WAT     H131506   5.551   2.412   0.412 -1.3132 -0.8735  1.1969
 7700WAT     H231507   5.592   2.539   0.382  1.2850 -1.6957  0.9519
 7700WAT    EPW31508   5.535   2.485   0.390 -0.1244 -0.1022 -0.2765
 7701WAT      O31509   3.891   2.715   3.073  0.0941 -0.0950 -0.0773
 7701WAT     H131510   3.834   2.666   3.030 -0.8363  0.5937  0.3516
 7701WAT     H231511   3.893   2.790   3.028 -0.2703  0.3276  0.5907
 7701WAT    EPW31512   3.883   2.719   3.060  0.5341 -0.2222 -1.1177
 7702WAT      O31513   6.041   3.905   1.707 -0.2324  0.5285  0.4164
 7702WAT     H131514   5.998   3.879   1.636 -1.1942  0.8859  0.8476
 7702WAT     H231515   6.016   3.988   1.717  1.0760  0.9554  0.3196
 7702WAT    EPW31516   6.031   3.913   1.698  0.0040 -0.3253  0.1546
 7703WAT      O31517   6.039   3.049   0.289  0.1750  0.2596 -0.2928
 7703WAT     H131518   5.981   3.001   0.245  0.5508 -2.6006  2.0073
 7703WAT     H231519   5.993   3.117   0.318 -1.2231 -0.3191 -1.1143
 7703WAT    EPW31520   6.024   3.052   0.287  0.3630  0.5592  0.1664
 7704WAT      O31521   6.673   0.218   5.019 -0.1927  0.1708  0.1677
 7704WAT     H131522   6.722   0.290   5.018  1.0092 -0.6134  0.4247
 7704WAT     H231523   6.644   0.212   4.936  0.6908  0.2928 -0.1587
 7704WAT    EPW31524   6.676   0.228   5.006 -0.3780 -0.3055  0.4249
 7705WAT      O31525   1.827   5.375   2.997 -0.1671  1.0134  0.1831
 7705WAT     H131526   1.860   5.358   3.076 -3.1116  2.0909  1.8176
 7705WAT     H231527   1.819   5.296   2.961 -0.5949  0.2621  1.8117
 7705WAT    EPW31528   1.831   5.361   3.003  0.2875 -0.2260 -0.2325
 7706WAT      O31529   1.314   0.111   5.630 -0.1130 -0.4084  0.1887
 7706WAT     H131530   1.236   0.130   5.594  0.2044 -0.0580 -0.3247
 7706WAT     H231531   1.317   0.024   5.628  0.6700 -0.3928 -2.3651
 7706WAT    EPW31532   1.303   0.101   5.625  0.0384 -0.0857 -0.0983
 7707WAT      O31533   6.254   2.986   6.740 -0.2891  0.4233 -0.4699
 7707WAT     H131534   6.227   2.912   6.702 -1.6563  0.6053  0.0860
 7707WAT     H231535   6.316   3.016   6.686 -0.4974 -0.5526 -1.2766
 7707WAT    EPW31536   6.259   2.980   6.727  0.0891  0.2003 -0.4366
 7708WAT      O31537   0.745   1.508   3.684  0.5451  0.1407 -0.3829
 7708WAT     H131538   0.821   1.516   3.725  1.3580 -3.0705 -0.9434
 7708WAT     H231539   0.761   1.538   3.603  1.4191 -0.9522 -0.6354
 7708WAT    EPW31540   0.758   1.513   3.678 -0.1058  0.1305 -0.3535
 7709WAT      O31541   3.943   1.226   6.036  0.3668 -0.5274 -0.1287
 7709WAT     H131542   4.007   1.285   6.029  0.3025 -0.6601 -2.6465
 7709WAT     H231543   3.872   1.270   6.011 -0.3371 -0.7905  1.2670
 7709WAT    EPW31544   3.942   1.241   6.031 -0.2028  0.2341 -0.0292
 7710WAT      O31545   0.938   0.377   5.609 -0.2939  0.0270  0.6302
 7710WAT     H131546   0.968   0.446   5.652 -0.9103  0.0208  1.0830
 7710WAT     H231547   0.895   0.331   5.670  0.4917 -0.9915  0.4429
 7710WAT    EPW31548   0.936   0.380   5.624 -0.1847  0.1420 -0.2619
 7711WAT      O31549   7.334   1.453   7.499 -0.2757  0.4036 -0.1310
 7711WAT     H131550   7.387   1.390   7.471 -1.7653 -1.0889  0.2097
 7711WAT     H231551   7.361   1.523   7.456  0.2570 -0.8762 -2.0144
 7711WAT    EPW31552   7.346   1.454   7.489  0.4106 -0.0711 -1.0333
 7712WAT      O31553   3.529   2.093   5.147  0.3876  0.3864  0.8785
 7712WAT     H131554   3.614   2.092   5.168  0.2821  1.0372  1.3568
 7712WAT     H231555   3.508   2.008   5.142  0.9600  0.2196  1.2045
 7712WAT    EPW31556   3.539   2.080   5.150 -0.3263  0.1515 -0.3698
 7713WAT      O31557   1.595   7.271   7.265 -0.0104 -0.0819  0.3093
 7713WAT     H131558   1.525   7.250   7.216 -1.5256  2.2711  1.2517
 7713WAT     H231559   1.630   7.338   7.222  1.0579 -0.5739  0.4015
 7713WAT    EPW31560   1.590   7.278   7.252 -0.6083 -0.0048  0.1699
 7714WAT      O31561   3.915   6.338   3.703 -0.0554 -0.1674  0.5313
 7714WAT     H131562   3.958   6.273   3.741  1.1881 -0.6484 -1.5368
 7714WAT     H231563   3.909   6.313   3.620 -2.2834  0.9877  0.2545
 7714WAT    EPW31564   3.920   6.325   3.696 -0.5604 -0.6063 -0.4758
 7715WAT      O31565   6.079   2.275   5.831  0.1223  0.4942 -0.0775
 7715WAT     H131566   6.142   2.215   5.828  1.9800  2.3256 -0.1279
 7715WAT     H231567   6.087   2.317   5.755 -0.9724  0.9696  0.0476
 7715WAT    EPW31568   6.089   2.273   5.819  0.2311 -0.6454  0.2803
 7716WAT      O31569   3.914   1.341   3.788 -0.4007 -0.1902 -0.4976
 7716WAT     H131570   3.850   1.361   3.732 -0.7796  0.5894  0.1830
 7716WAT     H231571   3.968   1.409   3.782  0.9106 -1.2905 -1.7913
 7716WAT    EPW31572   3.912   1.354   3.779 -0.5781  0.0165 -0.0692
 7717WAT      O31573   4.247   7.445   6.524  0.2834 -0.0901 -0.0744
 7717WAT     H131574   4.186   7.476   6.469 -0.8398 -0.9152  0.6611
 7717WAT     H231575   4.320   7.450   6.478 -0.5303 -0.2059 -1.4329
 7717WAT    EPW31576   4.249   7.450   6.509  0.6674 -0.2849 -0.1404
 7718WAT      O31577   2.966   3.642   6.557 -0.0380 -0.7134  0.1167
 7718WAT     H131578   2.923   3.676   6.489  0.9430 -3.6063 -2.1469
 7718WAT     H231579   2.904   3.597   6.599 -0.3075 -0.2926  0.1821
 7718WAT    EPW31580   2.951   3.640   6.554 -0.1491  0.2744 -0.5312
 7719WAT      O31581   0.997   6.006   5.753  0.4603  0.0380  0.2636
 7719WAT     H131582   0.922   5.981   5.790 -0.1117  0.9104 -0.2884
 7719WAT     H231583   1.018   6.078   5.798 -0.1015  0.9551 -0.8919
 7719WAT    EPW31584   0.989   6.013   5.765 -0.0474  0.0628  0.3389
 7720WAT      O31585   1.237   0.782   6.183  0.0814  0.4027 -0.3102
 7720WAT     H131586   1.204   0.762   6.104  1.0158  1.7443 -1.0915
 7720WAT     H231587   1.316   0.743   6.182 -0.0501  0.1230  0.1171
 7720WAT    EPW31588   1.244   0.773   6.171 -0.6122  0.0013 -0.5612
 7721WAT      O31589   4.380   3.844   5.059  0.0512 -0.2766  0.7756
 7721WAT     H131590   4.359   3.918   5.019  0.3952 -1.4848 -1.8940
 7721WAT     H231591   4.306   3.822   5.101 -0.4517  0.9147  0.5615
 7721WAT    EPW31592   4.366   3.851   5.060 -0.7427  0.0912  0.3107
 7722WAT      O31593   2.887   6.158   2.699 -0.2911 -0.6173  0.3630
 7722WAT     H131594   2.879   6.244   2.710 -0.4189 -0.7509  1.4516
 7722WAT     H231595   2.921   6.150   2.619  2.8606  0.5991  1.4199
 7722WAT    EPW31596   2.891   6.169   2.689  0.5993  0.3466 -0.6349
 7723WAT      O31597   4.452   7.263   0.914 -0.1057 -0.3385  0.0842
 7723WAT     H131598   4.413   7.299   0.984 -0.8693 -1.6491  0.3575
 7723WAT     H231599   4.386   7.229   0.869  0.4105  0.2396 -1.1682
 7723WAT    EPW31600   4.437   7.263   0.918 -0.2224 -0.1303 -0.0116
 7724WAT      O31601   4.503   2.864   1.946 -0.3291  0.2262  0.2261
 7724WAT     H131602   4.506   2.895   1.865  0.1433 -2.3758 -0.8561
 7724WAT     H231603   4.425   2.890   1.975 -2.2151 -1.7964 -2.4914
 7724WAT    EPW31604   4.492   2.872   1.938 -0.1531  0.3586  0.4236
 7725WAT      O31605   6.337   0.781   3.202  0.3405 -0.3258 -0.7449
 7725WAT     H131606   6.386   0.714   3.228  0.1646 -0.0081  0.4574
 7725WAT     H231607   6.344   0.838   3.267  1.4305  1.3595 -2.2436
 7725WAT    EPW31608   6.345   0.779   3.216 -0.2335 -0.3374 -0.7289
 7726WAT      O31609   3.596   4.342   2.142 -0.5487 -0.4416 -0.2618
 7726WAT     H131610   3.637   4.419   2.146  0.3220 -0.9434  1.1658
 7726WAT     H231611   3.521   4.361   2.100 -1.0604  1.5073  1.3616
 7726WAT    EPW31612   3.591   4.356   2.136  0.0297  0.1401  0.1805
 7727WAT      O31613   7.277   2.041   3.844  0.0138 -0.6959 -0.0378
 7727WAT     H131614   7.237   2.000   3.911  0.0858  0.1471  0.5402
 7727WAT     H231615   7.357   2.057   3.875 -0.4169  1.0433  0.2632
 7727WAT    EPW31616   7.283   2.037   3.859 -0.2849  0.3748  0.6953
 7728WAT      O31617   6.100   3.015   1.228  0.4622  0.1068  0.2945
 7728WAT     H131618   6.162   2.957   1.247  0.6404  0.5082  0.9616
 7728WAT     H231619   6.074   3.044   1.307  1.8488  2.4850 -0.0141
 7728WAT    EPW31620   6.105   3.011   1.243 -0.1606  0.1667 -0.0049
 7729WAT      O31621   5.632   2.186   1.758  0.1128  0.1155  0.3683
 7729WAT     H131622   5.577   2.212   1.696 -1.7161  0.9109  2.2407
 7729WAT     H231623   5.591   2.118   1.794  1.2630 -0.4797  0.6166
 7729WAT    EPW31624   5.618   2.180   1.754 -0.0855 -0.2228  0.1185
 7730WAT      O31625   6.348   4.651   2.314  0.0498  0.5753 -0.1658
 7730WAT     H131626   6.300   4.614   2.377 -0.5291 -1.0933 -1.5124
 7730WAT     H231627   6.418   4.681   2.356 -1.2077  1.2686  1.5498
 7730WAT    EPW31628   6.351   4.650   2.330  0.7627  0.1156 -0.4423
 7731WAT      O31629   1.843   2.530   1.477  0.3284  0.0097 -0.0947
 7731WAT     H131630   1.873   2.569   1.549  0.4138 -2.0197  1.0403
 7731WAT     H231631   1.912   2.529   1.424  1.1547 -1.0606  0.9531
 7731WAT    EPW31632   1.857   2.535   1.479  0.5895 -0.5447  0.5163
 7732WAT      O31633   7.116   0.908   3.347 -0.1875  0.1046  0.2933
 7732WAT     H131634   7.078   0.856   3.406 -0.2362 -0.3700 -0.1478
 7732WAT     H231635   7.122   0.857   3.276 -1.8603  1.2266 -0.7246
 7732WAT    EPW31636   7.111   0.892   3.345 -0.1923 -0.1210 -0.3750
 7733WAT      O31637   5.075   3.246   4.443 -0.2927  0.0717  0.1906
 7733WAT     H131638   5.059   3.328   4.420  0.2335  0.4994  1.2690
 7733WAT     H231639   4.997   3.216   4.468 -0.2791  0.6486  0.9659
 7733WAT    EPW31640   5.061   3.254   4.443 -0.1117  0.4523  0.1595
 7734WAT      O31641   0.861   1.809   5.127  0.1197 -0.0408 -0.3394
 7734WAT     H131642   0.901   1.734   5.108  1.5416  0.5623  0.1232
 7734WAT     H231643   0.812   1.825   5.056 -0.3504 -1.4684 -0.3657
 7734WAT    EPW31644   0.860   1.800   5.113  0.7892  0.3448  0.2821
 7735WAT      O31645   1.972   4.851   3.960  0.2654  0.0108  0.3648
 7735WAT     H131646   2.026   4.849   3.892 -0.1560 -0.6404  0.0279
 7735WAT     H231647   1.910   4.908   3.936 -0.1191 -0.5454  0.0000
 7735WAT    EPW31648   1.971   4.859   3.947  0.7233  0.3416  0.2634
 7736WAT      O31649   0.117   0.808   4.736  0.0378 -0.3904  0.2162
 7736WAT     H131650   0.167   0.842   4.673 -1.5505  1.1556 -0.3001
 7736WAT     H231651   0.051   0.770   4.691 -1.0673  0.6596  0.8892
 7736WAT    EPW31652   0.114   0.807   4.720  0.8224 -0.0097 -0.4619
 7737WAT      O31653   2.140   1.826   2.998 -0.0556 -0.6860  0.3194
 7737WAT     H131654   2.185   1.788   3.063  1.5251  0.9582  0.2621
 7737WAT     H231655   2.165   1.909   3.002 -1.3795 -0.1750 -1.2190
 7737WAT    EPW31656   2.151   1.833   3.009  0.1118  0.0813 -0.2351
 7738WAT      O31657   2.261   3.917   4.006 -0.1182 -0.0028  0.7187
 7738WAT     H131658   2.275   3.896   3.922  1.8001 -0.5251  1.1327
 7738WAT     H231659   2.219   3.994   4.000  2.3788  1.3922 -0.7596
 7738WAT    EPW31660   2.257   3.925   3.993  0.6656  0.5117 -0.2348
 7739WAT      O31661   5.290   3.791   1.084  0.1873 -0.0014 -0.4889
 7739WAT     H131662   5.255   3.723   1.126 -0.6643  0.2971 -0.6975
 7739WAT     H231663   5.376   3.782   1.098  0.2371 -1.8517 -1.5785
 7739WAT    EPW31664   5.298   3.779   1.092  0.4325 -0.1940  0.4847
 7740WAT      O31665   2.414   5.846   4.171 -0.1079  0.4508 -0.5415
 7740WAT     H131666   2.377   5.767   4.166 -0.1236  0.1572  2.6437
 7740WAT     H231667   2.430   5.866   4.087  0.0331 -2.9449 -1.4637
 7740WAT    EPW31668   2.411   5.837   4.158  0.3485 -0.3579 -0.4232
 7741WAT      O31669   4.763   7.426   1.350  0.1552 -0.1008 -0.4648
 7741WAT     H131670   4.780   7.438   1.265  0.8805  0.9126 -0.1989
 7741WAT     H231671   4.841   7.403   1.382 -0.3190 -1.4446 -0.2222
 7741WAT    EPW31672   4.777   7.424   1.342  0.5002 -0.3875  0.5824
 7742WAT      O31673   5.149   4.362   6.945 -0.2748  0.8094 -0.5346
 7742WAT     H131674   5.183   4.441   6.926  1.9149 -0.2572 -1.3439
 7742WAT     H231675   5.193   4.337   7.016  1.5722 -1.0557 -2.2066
 7742WAT    EPW31676   5.161   4.370   6.953 -0.3317  0.3626  0.8313
 7743WAT      O31677   0.387   6.703   2.625 -0.4171  0.3244  0.5134
 7743WAT     H131678   0.335   6.731   2.689 -1.7348  0.6153 -0.6465
 7743WAT     H231679   0.335   6.655   2.574  1.2098 -2.2006  1.0414
 7743WAT    EPW31680   0.372   6.700   2.627  0.0216 -0.4348  0.6660
 7744WAT      O31681   4.809   4.881   5.893 -0.1796  0.1379  0.0056
 7744WAT     H131682   4.792   4.839   5.819  1.9238 -0.0693 -0.4372
 7744WAT     H231683   4.778   4.961   5.878 -0.6317 -0.1638 -0.7333
 7744WAT    EPW31684   4.802   4.887   5.880 -0.0588  0.3494  0.1098
 7745WAT      O31685   4.615   6.877   4.899 -0.2631 -0.5156 -0.3862
 7745WAT     H131686   4.694   6.906   4.878  0.6575 -1.6771  1.2195
 7745WAT     H231687   4.624   6.853   4.983 -3.2873  2.7565  1.1154
 7745WAT    EPW31688   4.628   6.877   4.909  0.4836 -0.2809 -0.1934
 7746WAT      O31689   0.624   4.239   1.273  0.0844 -0.0494 -0.2720
 7746WAT     H131690   0.659   4.196   1.206 -0.4762  0.8465 -1.1741
 7746WAT     H231691   0.567   4.293   1.235  0.9178  1.6568  0.7693
 7746WAT    EPW31692   0.620   4.241   1.257 -0.8246  0.6700 -0.5849
 7747WAT      O31693   6.858   0.011   4.938  0.8694 -0.4014 -0.2010
 7747WAT     H131694   6.822   0.078   4.982  1.8294 -0.0324  0.0410
 7747WAT     H231695   6.942   0.016   4.959  1.1084 -1.0930 -0.9680
 7747WAT    EPW31696   6.865   0.022   4.948  0.1478  0.8220  0.8280
 7748WAT      O31697   3.869   4.606   1.865  0.1504 -0.5078  0.6400
 7748WAT     H131698   3.856   4.611   1.951  1.3286  0.8493  0.7844
 7748WAT     H231699   3.952   4.581   1.858 -0.1985 -1.5088 -0.1299
 7748WAT    EPW31700   3.880   4.603   1.876 -0.4820  0.2072 -0.3948
 7749WAT      O31701   0.136   7.486   2.240  0.0264 -0.4129  0.1946
 7749WAT     H131702   0.191   7.484   2.308 -0.1567  2.2908  0.5239
 7749WAT     H231703   0.189   7.487   2.171  0.3536  0.1928  0.4424
 7749WAT    EPW31704   0.152   7.486   2.240 -0.0411  0.0661  0.5307
 7750WAT      O31705   2.210   4.673   6.788  0.1943  0.7655 -0.2409
 7750WAT     H131706   2.216   4.608   6.730  1.0872  0.8380 -0.2431
 7750WAT     H231707   2.194   4.743   6.739 -0.4833  0.5998 -0.2645
 7750WAT    EPW31708   2.208   4.674   6.772 -0.7798  0.3338  0.2800
 7751WAT      O31709   4.499   3.022   7.162  0.5209  0.2277 -0.0679
 7751WAT     H131710   4.562   3.070   7.128 -0.2354  0.9913 -0.4235
 7751WAT     H231711   4.439   3.080   7.186  0.1024 -0.4526  0.5880
 7751WAT    EPW31712   4.499   3.037   7.161  0.2289  0.1936  0.0256
 7752WAT      O31713   6.293   2.965   4.143 -0.4902 -0.3384 -0.2560
 7752WAT     H131714   6.316   3.021   4.206  0.9658 -0.9136 -0.2456
 7752WAT     H231715   6.369   2.936   4.111 -1.1960 -0.8026 -1.6270
 7752WAT    EPW31716   6.307   2.969   4.148 -0.0693  0.0477 -0.1588
 7753WAT      O31717   1.381   6.527   4.513  0.0360 -0.5372 -0.3371
 7753WAT     H131718   1.294   6.520   4.515  0.0886 -2.3969 -1.8741
 7753WAT     H231719   1.402   6.538   4.597 -1.7147  1.1458 -0.0601
 7753WAT    EPW31720   1.372   6.527   4.526 -0.0790 -0.0382  0.0446
 7754WAT      O31721   7.259   6.277   5.500  0.0203  0.3042  0.4880
 7754WAT     H131722   7.316   6.309   5.442  2.0862 -0.0725  2.1602
 7754WAT     H231723   7.225   6.207   5.461 -0.1178  1.1487 -0.9565
 7754WAT    EPW31724   7.262   6.272   5.486  0.0611  0.3892 -0.3465
 7755WAT      O31725   4.763   6.596   3.128  0.6088  0.2412  0.0799
 7755WAT     H131726   4.804   6.586   3.052  1.1634  0.1222  0.3813
 7755WAT     H231727   4.810   6.657   3.169 -0.2307  0.9727 -0.0350
 7755WAT    EPW31728   4.776   6.603   3.123 -0.0592  0.0990  0.2548
 7756WAT      O31729   0.071   4.381   5.864  0.4213 -0.6051  0.1884
 7756WAT     H131730   0.026   4.346   5.930 -1.7686  1.3315 -0.1649
 7756WAT     H231731   0.010   4.414   5.812  2.2239  1.0441 -1.0309
 7756WAT    EPW31732   0.056   4.380   5.866 -0.2863  0.1526 -0.3656
 7757WAT      O31733   5.586   3.866   4.033  0.1960 -0.5661  0.1759
 7757WAT     H131734   5.604   3.831   4.111  0.8388  0.3657  0.4565
 7757WAT     H231735   5.623   3.944   4.036 -1.0824  0.0973 -0.5137
 7757WAT    EPW31736   5.594   3.872   4.045  0.2351 -0.2929  0.2599
 7758WAT      O31737   2.611   2.692   6.295  0.4066 -0.2224 -0.4458
 7758WAT     H131738   2.634   2.619   6.336  1.3407 -0.6529 -1.6844
 7758WAT     H231739   2.680   2.711   6.246  0.0542  1.3241 -0.4080
 7758WAT    EPW31740   2.625   2.684   6.294 -0.2341 -0.2196  0.4019
 7759WAT      O31741   5.581   2.189   0.139  0.0878  0.0862 -0.0395
 7759WAT     H131742   5.610   2.124   0.190  2.0727  0.5325 -0.5009
 7759WAT     H231743   5.524   2.150   0.086  0.7070 -1.1531  0.1742
 7759WAT    EPW31744   5.577   2.174   0.138  0.2346  0.1302  0.6836
 7760WAT      O31745   7.019   0.187   0.461  0.1944  0.1913 -0.0266
 7760WAT     H131746   7.055   0.227   0.393 -1.3624  0.0422 -1.0033
 7760WAT     H231747   6.965   0.129   0.424 -0.6122  0.0279  1.3353
 7760WAT    EPW31748   7.016   0.184   0.445 -0.1560  0.1583  0.3552
 7761WAT      O31749   0.376   5.824   6.484  0.7022  0.0075 -0.6223
 7761WAT     H131750   0.341   5.853   6.409  0.0618 -0.8917 -0.6827
 7761WAT     H231751   0.330   5.752   6.502  1.2622 -0.1326  0.3165
 7761WAT    EPW31752   0.364   5.818   6.476  0.3971  0.3931  0.1768
 7762WAT      O31753   1.868   1.056   1.080 -0.9101 -0.1561  0.6540
 7762WAT     H131754   1.842   1.097   1.007 -0.9277  0.0440  0.7722
 7762WAT     H231755   1.833   1.104   1.144 -2.8694 -1.6354  0.7863
 7762WAT    EPW31756   1.859   1.069   1.079  0.2510  0.2873  0.3506
 7763WAT      O31757   0.957   2.982   3.734 -0.5254 -0.0199  0.0335
 7763WAT     H131758   0.986   3.015   3.810 -0.4770 -0.7444  0.3326
 7763WAT     H231759   1.027   2.985   3.682 -0.8541  1.6070 -0.3847
 7763WAT    EPW31760   0.971   2.987   3.737  0.5985  0.1036  0.1877
 7764WAT      O31761   1.608   3.090   0.739 -0.2644  0.5560 -0.1234
 7764WAT     H131762   1.661   3.066   0.804 -0.5105  1.7294  0.5427
 7764WAT     H231763   1.532   3.104   0.779 -0.9573 -0.5875 -0.9873
 7764WAT    EPW31764   1.605   3.089   0.755  0.6973  0.5112 -0.3544
 7765WAT      O31765   4.052   5.133   6.783 -0.7801  0.2974 -0.0816
 7765WAT     H131766   4.027   5.059   6.823 -0.4055 -0.5140 -1.3209
 7765WAT     H231767   3.989   5.189   6.805 -2.6067 -1.1336 -1.3866
 7765WAT    EPW31768   4.039   5.130   6.792  0.2417 -0.0511  0.5032
 7766WAT      O31769   3.868   5.436   1.097  0.2389  0.1068  0.0157
 7766WAT     H131770   3.910   5.420   1.172  1.7085 -0.0129 -0.7937
 7766WAT     H231771   3.842   5.519   1.105  1.5944  0.5538  0.1373
 7766WAT    EPW31772   3.871   5.446   1.109 -0.4586  0.6766  0.0321
 7767WAT      O31773   5.341   0.380   0.041 -0.8136 -0.3795  0.1866
 7767WAT     H131774   5.400   0.394   0.104  1.5275 -3.2011 -1.1263
 7767WAT     H231775   5.381   0.411  -0.031 -1.6577 -0.8487 -0.4990
 7767WAT    EPW31776   5.356   0.387   0.039 -0.0848 -0.8336 -0.4998
 7768WAT      O31777   0.239   1.731   1.550  0.2103  0.6699 -0.4479
 7768WAT     H131778   0.248   1.694   1.628  0.1387  2.1652  0.2947
 7768WAT     H231779   0.260   1.667   1.495 -0.6667 -0.7037  0.7390
 7768WAT    EPW31780   0.244   1.716   1.553  0.1945 -0.3781  0.0805
 7769WAT      O31781   0.792   7.262   0.878  0.0667 -0.0005  0.3256
 7769WAT     H131782   0.866   7.308   0.888  0.0785  0.0980 -0.1690
 7769WAT     H231783   0.767   7.282   0.796  0.4185 -1.3911 -0.1533
 7769WAT    EPW31784   0.799   7.272   0.867  0.0742 -0.3894  0.1100
 7770WAT      O31785   1.040   1.930   1.192 -0.2856 -0.6633 -0.4768
 7770WAT     H131786   0.958   1.944   1.166 -0.2710  1.4326  0.3953
 7770WAT     H231787   1.082   2.003   1.167  0.8660 -0.8724  0.7313
 7770WAT    EPW31788   1.034   1.943   1.185  0.1477  0.6429 -0.5918
 7771WAT      O31789   4.481   2.726   3.919  1.1105  0.6961  0.1865
 7771WAT     H131790   4.422   2.662   3.929  0.5757  1.4057  2.1873
 7771WAT     H231791   4.501   2.723   3.835 -0.8946 -0.3831 -0.3148
 7771WAT    EPW31792   4.475   2.717   3.908  0.5120 -0.4767 -0.2252
 7772WAT      O31793   6.079   0.557   2.067 -0.0625  0.5277 -0.1593
 7772WAT     H131794   6.035   0.482   2.075  0.8039 -0.3274 -2.4453
 7772WAT     H231795   6.155   0.532   2.032 -0.7150  2.6058 -3.5954
 7772WAT    EPW31796   6.084   0.542   2.063 -0.4879 -0.3135  0.7861
 7773WAT      O31797   3.333   6.433   0.593  0.2377  0.3259  0.4205
 7773WAT     H131798   3.406   6.392   0.619  0.8707  1.0057 -0.2385
 7773WAT     H231799   3.269   6.389   0.633  1.0978  0.7494  2.3310
 7773WAT    EPW31800   3.334   6.420   0.603  0.2986 -0.2800  0.1817
 7774WAT      O31801   5.752   6.535   2.018  0.2397 -0.2747  0.1366
 7774WAT     H131802   5.817   6.510   2.071  0.7106 -0.4150 -0.4885
 7774WAT     H231803   5.734   6.462   1.972  1.4379  0.4125 -1.5118
 7774WAT    EPW31804   5.759   6.520   2.019 -0.0599 -0.4245  0.0785
 7775WAT      O31805   2.080   1.307   3.579  0.1902 -0.6876  0.1031
 7775WAT     H131806   2.041   1.380   3.552  2.8317  0.6693 -0.3706
 7775WAT     H231807   2.051   1.246   3.524 -1.1901  0.2301 -0.2181
 7775WAT    EPW31808   2.070   1.309   3.567 -0.3310  0.4096  0.2854
 7776WAT      O31809   0.536   6.707   0.377  0.4361  0.3340 -0.0401
 7776WAT     H131810   0.450   6.700   0.360  0.5051  2.1899 -1.5066
 7776WAT     H231811   0.573   6.656   0.317  0.3732 -0.4699  0.5949
 7776WAT    EPW31812   0.528   6.699   0.366  0.2027 -0.7591  1.4464
 7777WAT      O31813   0.830   4.049   5.046 -0.5686  0.1883 -0.0526
 7777WAT     H131814   0.912   4.021   5.033 -0.4103  0.4298  0.3970
 7777WAT     H231815   0.841   4.130   5.076 -0.9561  0.0198  0.5452
 7777WAT    EPW31816   0.844   4.057   5.048  0.2379  0.7093 -0.3104
 7778WAT      O31817   4.338   0.931   5.977  0.1355  0.4956 -0.0401
 7778WAT     H131818   4.260   0.951   5.944  1.5393  1.9722 -2.8806
 7778WAT     H231819   4.355   0.853   5.943  0.4160  0.7732 -0.5555
 7778WAT    EPW31820   4.329   0.922   5.967 -0.5352 -0.0802  0.1624
 7779WAT      O31821   5.572   0.247   6.136 -0.3920 -0.7921  0.2750
 7779WAT     H131822   5.608   0.178   6.097  0.5848  0.1248 -0.4828
 7779WAT     H231823   5.520   0.281   6.075  0.8009  0.3869 -0.1361
 7779WAT    EPW31824   5.570   0.242   6.122  0.5670  0.0211  0.1966
 7780WAT      O31825   4.403   2.355   5.819 -0.0867  0.4983  0.4401
 7780WAT     H131826   4.335   2.324   5.773  1.9933 -1.1168 -1.7689
 7780WAT     H231827   4.446   2.283   5.844  1.0116  1.4870  1.5619
 7780WAT    EPW31828   4.399   2.340   5.816 -0.2323 -0.6861  0.0466
 7781WAT      O31829   4.576   5.400   1.779  0.1563 -0.5719  0.5618
 7781WAT     H131830   4.548   5.424   1.700  2.6806 -0.5522 -0.4275
 7781WAT     H231831   4.576   5.313   1.775  1.9958 -0.5797 -0.2018
 7781WAT    EPW31832   4.572   5.391   1.766 -0.3227 -0.4197  0.8697
 7782WAT      O31833   6.516   6.139   2.222 -0.3192  0.6153 -0.5943
 7782WAT     H131834   6.569   6.202   2.192  0.6853 -0.6026 -1.4916
 7782WAT     H231835   6.558   6.066   2.200 -2.2808 -0.4022 -1.0884
 7782WAT    EPW31836   6.530   6.138   2.215  0.5798  0.1185  0.3709
 7783WAT      O31837   3.944   6.984   1.175  0.1665 -0.1405 -0.3605
 7783WAT     H131838   3.933   7.068   1.154  0.8034  0.0061 -0.1185
 7783WAT     H231839   4.008   6.958   1.122  1.4576  0.1043  1.0170
 7783WAT    EPW31840   3.952   6.992   1.164  0.5725  0.7406  0.5115
 7784WAT      O31841   4.204   0.656   4.715 -0.4962  0.6489 -0.3477
 7784WAT     H131842   4.213   0.720   4.774  1.0675 -0.1456  0.3233
 7784WAT     H231843   4.270   0.602   4.733 -0.9420 -0.4390 -1.8143
 7784WAT    EPW31844   4.215   0.658   4.726  0.1388  0.1547  0.4783
 7785WAT      O31845   5.811   0.518   0.616  0.1676 -0.3288 -0.1547
 7785WAT     H131846   5.811   0.439   0.653  1.4527 -0.2928 -0.0354
 7785WAT     H231847   5.834   0.502   0.534 -1.0116 -0.2122 -0.5376
 7785WAT    EPW31848   5.814   0.504   0.609 -0.3981 -0.0170 -0.2867
 7786WAT      O31849   6.800   5.175   0.950  0.0457  0.5005  0.4518
 7786WAT     H131850   6.759   5.252   0.952 -0.5475  0.1964  0.2549
 7786WAT     H231851   6.883   5.196   0.964 -0.2433  1.0791  1.3598
 7786WAT    EPW31852   6.806   5.190   0.952  0.4971  0.0772  0.1842
 7787WAT      O31853   6.302   3.375   7.251  0.3560  0.5728  0.5824
 7787WAT     H131854   6.337   3.409   7.178  1.4056  1.0195  1.2748
 7787WAT     H231855   6.273   3.297   7.224  1.0283  0.5803 -0.2550
 7787WAT    EPW31856   6.303   3.368   7.236 -0.2350 -0.0235 -0.2013
 7788WAT      O31857   5.941   1.168   6.140 -0.3341  0.6673  0.6735
 7788WAT     H131858   5.892   1.179   6.068  0.0555  0.4245  0.3672
 7788WAT     H231859   6.017   1.207   6.119 -0.6498  1.7236  1.4250
 7788WAT    EPW31860   5.945   1.176   6.126 -0.1723 -0.0461 -0.5026
 7789WAT      O31861   5.043   4.095   2.637  0.0264  0.0517  0.4457
 7789WAT     H131862   4.964   4.124   2.612 -0.5088 -1.2148  0.6265
 7789WAT     H231863   5.026   4.050   2.709  0.8028 -0.9498  0.0121
 7789WAT    EPW31864   5.029   4.093   2.644  0.1034  0.9392 -0.9594
 7790WAT      O31865   5.049   5.841   0.822 -0.3808 -0.1480  0.1073
 7790WAT     H131866   5.130   5.809   0.816 -0.7246 -1.3601  1.2890
 7790WAT     H231867   5.020   5.839   0.740 -0.8357 -4.3585  0.1640
 7790WAT    EPW31868   5.056   5.836   0.809  0.3541  0.3019 -0.1610
 7791WAT      O31869   4.291   3.952   5.349  0.2503 -0.1087  0.1334
 7791WAT     H131870   4.293   4.032   5.315  1.8272 -1.0014 -2.0994
 7791WAT     H231871   4.244   3.906   5.291  0.5564 -1.1002  0.6500
 7791WAT    EPW31872   4.284   3.957   5.336 -0.2434  0.4873  0.1738
 7792WAT      O31873   0.775   1.238   0.364  0.4492  0.1475  0.0127
 7792WAT     H131874   0.777   1.173   0.305  0.0759 -0.5714  0.7651
 7792WAT     H231875   0.769   1.310   0.315  1.1631 -0.3596 -0.8526
 7792WAT    EPW31876   0.774   1.239   0.348 -0.0934  0.0639  1.0480
 7793WAT      O31877   5.543   0.481   4.902  0.7574  0.1007 -0.5842
 7793WAT     H131878   5.502   0.413   4.866  1.9037 -0.2735 -1.2169
 7793WAT     H231879   5.507   0.487   4.981 -1.0382  0.2686 -1.3752
 7793WAT    EPW31880   5.532   0.472   4.908  0.2354 -0.5924 -0.2011
 7794WAT      O31881   0.320   1.535   4.411  0.7805  0.1548 -0.3802
 7794WAT     H131882   0.378   1.473   4.433  3.5118  1.5430 -2.9348
 7794WAT     H231883   0.339   1.552   4.327 -2.7110  1.5100 -1.0805
 7794WAT    EPW31884   0.332   1.528   4.402  0.1349  0.1243 -0.1534
 7795WAT      O31885   4.208   0.625   3.989  0.5721 -0.0904 -0.0771
 7795WAT     H131886   4.175   0.546   4.006  0.5589 -0.1067 -0.1742
 7795WAT     H231887   4.137   0.675   3.984  0.6568  0.2605  1.6048
 7795WAT    EPW31888   4.193   0.621   3.991  0.4298 -0.8694  0.6117
 7796WAT      O31889   7.560   3.480   2.143 -0.3067 -0.1484  0.6425
 7796WAT     H131890   7.580   3.404   2.105  0.4053 -0.1578  1.0276
 7796WAT     H231891   7.587   3.540   2.086  1.1417 -0.1530  1.2749
 7796WAT    EPW31892   7.567   3.478   2.129  0.6367  0.4877  0.0122
 7797WAT      O31893   5.339   2.597   6.056  0.3725  0.2799  0.0174
 7797WAT     H131894   5.371   2.576   5.978 -0.2674 -1.4354  0.1787
 7797WAT     H231895   5.301   2.674   6.043 -1.3914 -0.8154 -1.8773
 7797WAT    EPW31896   5.338   2.605   6.042  0.1513  0.0163 -0.1412
 7798WAT      O31897   7.325   2.095   6.011  0.7510  0.3272 -0.3965
 7798WAT     H131898   7.254   2.047   5.994  1.6811 -0.8727 -1.0714
 7798WAT     H231899   7.386   2.035   6.032  1.4284  1.3566  0.7335
 7798WAT    EPW31900   7.324   2.079   6.012 -0.8040  0.2171  0.5758
 7799WAT      O31901   3.865   6.258   6.229  0.5309 -0.4080  0.5302
 7799WAT     H131902   3.903   6.182   6.212  0.4431  0.1398 -2.7945
 7799WAT     H231903   3.811   6.270   6.162  0.2084  2.3716  1.1496
 7799WAT    EPW31904   3.862   6.249   6.217  0.1351  0.1140 -0.1797
 7800WAT      O31905   6.212   5.987   2.676  0.0816  0.1522 -0.0304
 7800WAT     H131906   6.171   6.034   2.614  1.3334  1.7912  0.3188
 7800WAT     H231907   6.277   5.950   2.632 -1.2072 -1.8070 -0.4176
 7800WAT    EPW31908   6.215   5.989   2.660  0.4801  0.1522 -0.2355
 7801WAT      O31909   0.839   2.653   1.165 -0.0057  0.0651  0.3254
 7801WAT     H131910   0.920   2.651   1.196  0.3206  0.7756 -0.4325
 7801WAT     H231911   0.850   2.669   1.080 -0.9358  0.2269  0.2242
 7801WAT    EPW31912   0.852   2.655   1.157 -0.0557  0.3920 -0.3830
 7802WAT      O31913   0.225   2.528   2.152  0.0854 -0.0091  0.1274
 7802WAT     H131914   0.240   2.595   2.206  0.8895 -0.3233  0.2955
 7802WAT     H231915   0.247   2.459   2.199 -0.0943 -0.3521 -0.2877
 7802WAT    EPW31916   0.230   2.528   2.167 -0.0642  0.0078 -0.3680
 7803WAT      O31917   3.956   4.830   0.917 -0.6252  0.5492  0.1136
 7803WAT     H131918   3.953   4.842   1.004 -1.4590  1.8382 -0.0652
 7803WAT     H231919   3.888   4.777   0.902 -0.6241  0.5149  0.2295
 7803WAT    EPW31920   3.945   4.824   0.928 -0.7862  0.7935  0.1173
 7804WAT      O31921   1.436   0.264   6.599 -0.5946 -0.1954 -0.5942
 7804WAT     H131922   1.519   0.244   6.619 -0.5217  1.2413  0.7113
 7804WAT     H231923   1.411   0.197   6.548  0.8765 -1.4316  0.1992
 7804WAT    EPW31924   1.445   0.251   6.594 -0.4059  0.8168 -0.2764
 7805WAT      O31925   4.694   1.025   1.472 -0.3561  0.5232 -0.2017
 7805WAT     H131926   4.758   0.980   1.434  0.4116 -1.0447  2.6507
 7805WAT     H231927   4.714   1.108   1.454  1.7335  0.0167 -0.5373
 7805WAT    EPW31928   4.707   1.030   1.464  0.0634  0.1468  0.0199
 7806WAT      O31929   5.985   6.995   5.323 -0.1888 -0.1883  0.1617
 7806WAT     H131930   6.061   7.022   5.289 -0.5389  0.7660  0.0835
 7806WAT     H231931   5.945   7.070   5.343 -0.1168 -0.6854  2.4539
 7806WAT    EPW31932   5.990   7.010   5.321  0.6320  0.6872 -0.2328
 7807WAT      O31933   5.994   1.034   1.889 -0.1499  0.2072 -0.6408
 7807WAT     H131934   5.940   0.997   1.832 -1.1654 -0.4710  0.6993
 7807WAT     H231935   6.017   0.968   1.941  1.3468  0.6588 -0.7031
 7807WAT    EPW31936   5.989   1.019   1.888 -0.2250  0.4100  0.6538
 7808WAT      O31937   5.898   1.039   6.699 -0.1348  0.4078 -0.1249
 7808WAT     H131938   5.923   0.959   6.722 -1.8725 -0.5782 -1.4446
 7808WAT     H231939   5.898   1.036   6.612 -0.7005  1.6767 -0.1868
 7808WAT    EPW31940   5.901   1.027   6.690  0.4998  0.5307  0.0057
 7809WAT      O31941   5.983   1.375   0.353  0.3168  0.5181 -0.5687
 7809WAT     H131942   5.949   1.449   0.320  0.7038  1.2949  0.7198
 7809WAT     H231943   5.962   1.315   0.293 -0.2137  1.6226 -1.5352
 7809WAT    EPW31944   5.975   1.377   0.339  0.4140 -0.6250  0.1292
 7810WAT      O31945   3.477   4.591   6.108 -0.9647 -0.5736 -0.1788
 7810WAT     H131946   3.547   4.639   6.127 -0.8608 -0.1354 -1.5343
 7810WAT     H231947   3.509   4.531   6.052 -1.5761 -0.6537 -0.4428
 7810WAT    EPW31948   3.492   4.589   6.102  0.1372  0.3466 -0.2756
 7811WAT      O31949   3.412   5.496   5.495 -0.1259 -0.0324  0.0669
 7811WAT     H131950   3.494   5.522   5.510 -0.1911  0.0283  0.3194
 7811WAT     H231951   3.422   5.421   5.453  0.0643  0.3422 -0.5665
 7811WAT    EPW31952   3.426   5.489   5.491 -0.1462 -0.4698 -0.1323
 7812WAT      O31953   1.532   6.301   5.427  0.7154 -0.1370 -0.0997
 7812WAT     H131954   1.557   6.232   5.380  0.0882 -0.8273  0.5475
 7812WAT     H231955   1.528   6.366   5.369  1.4536 -0.6161 -0.6919
 7812WAT    EPW31956   1.535   6.301   5.411 -0.8664  0.1711 -0.2179
 7813WAT      O31957   1.333   1.565   4.199 -0.1426  0.1095 -0.1816
 7813WAT     H131958   1.376   1.595   4.269 -0.3880  0.8654 -0.3422
 7813WAT     H231959   1.272   1.626   4.185  1.0571  0.9822 -2.1746
 7813WAT    EPW31960   1.330   1.578   4.207 -0.2194  0.7156  0.0449
 7814WAT      O31961   1.584   6.354   7.331 -0.2164  0.0954 -1.2547
 7814WAT     H131962   1.595   6.292   7.392  0.6773  0.0063 -1.5004
 7814WAT     H231963   1.622   6.424   7.367 -4.7359  1.8712  0.9489
 7814WAT    EPW31964   1.591   6.356   7.345  0.1931 -0.0283  0.2352
 7815WAT      O31965   1.349   7.262   2.289  0.2381 -0.0640 -0.8153
 7815WAT     H131966   1.262   7.262   2.297  0.2727 -0.6560 -0.3467
 7815WAT     H231967   1.367   7.181   2.264  0.7947 -0.5031  0.8715
 7815WAT    EPW31968   1.339   7.250   2.286  0.2797 -0.1836  0.7374
 7816WAT      O31969   5.106   7.406   3.679 -0.0646 -0.4918  0.1005
 7816WAT     H131970   5.162   7.371   3.736 -1.2061 -2.2175  0.2373
 7816WAT     H231971   5.137   7.381   3.601  0.5754  0.4718  0.0284
 7816WAT    EPW31972   5.119   7.397   3.676  0.2931  0.6508  0.1267
 7817WAT      O31973   2.993   4.486   1.543  0.4571 -0.1089  0.4657
 7817WAT     H131974   3.016   4.433   1.477  1.8643  1.9928 -0.8588
 7817WAT     H231975   2.916   4.517   1.518  1.0224  0.7411 -0.2582
 7817WAT    EPW31976   2.985   4.482   1.529  0.6022  0.2206 -0.0094
 7818WAT      O31977   6.510   6.952   5.762  0.0876  0.4411  0.3517
 7818WAT     H131978   6.446   6.893   5.753 -1.0002  1.4086  1.4875
 7818WAT     H231979   6.545   6.932   5.839 -1.0587  1.9407  1.3197
 7818WAT    EPW31980   6.506   6.940   5.772 -0.4210 -0.3930 -0.3923
 7819WAT      O31981   2.347   4.056   3.209  0.7685 -0.3897 -0.0808
 7819WAT     H131982   2.403   4.066   3.275  1.3613 -1.4026 -0.3956
 7819WAT     H231983   2.292   3.995   3.239 -0.2742  0.6904  0.2744
 7819WAT    EPW31984   2.347   4.048   3.223 -0.3319  0.3359  0.1902
 7820WAT      O31985   2.806   5.707   2.066  0.6808  0.4144  0.8566
 7820WAT     H131986   2.805   5.645   2.127  0.4897 -0.9756 -0.5093
 7820WAT     H231987   2.721   5.721   2.049  0.7013 -1.2639 -1.0270
 7820WAT    EPW31988   2.793   5.700   2.072 -0.3639 -0.9093 -0.1416
 7821WAT      O31989   6.154   0.174   2.646  0.0270  0.0388 -0.9004
 7821WAT     H131990   6.139   0.091   2.668  0.6053 -0.1866 -1.3440
 7821WAT     H231991   6.080   0.198   2.606 -0.0152 -0.3606 -1.0669
 7821WAT    EPW31992   6.141   0.165   2.643 -0.3518  0.4760 -0.3180
 7822WAT      O31993   2.236   5.059   6.115 -0.2311 -0.3552 -0.3637
 7822WAT     H131994   2.276   5.136   6.101 -3.6578  1.7777  0.2041
 7822WAT     H231995   2.207   5.037   6.036 -0.6695 -0.1383 -0.2678
 7822WAT    EPW31996   2.238   5.067   6.101 -0.7512  0.1422 -0.0006
 7823WAT      O31997   1.474   7.453   6.635  0.5564 -0.1543  0.3443
 7823WAT     H131998   1.462   7.505   6.705 -1.1613 -0.0403  0.0022
 7823WAT     H231999   1.420   7.386   6.650 -0.0144 -0.0096 -0.9850
 7823WAT    EPW32000   1.465   7.451   6.648  0.4046 -0.4404 -0.5046
 7824WAT      O32001   7.153   1.059   0.546  0.1670  0.1808  0.7154
 7824WAT     H132002   7.183   0.988   0.505 -0.6735  0.2909 -0.1239
 7824WAT     H232003   7.088   1.028   0.595 -0.3671  0.3802  0.1586
 7824WAT    EPW32004   7.148   1.044   0.547  0.1188  0.7904 -0.1735
 7825WAT      O32005   6.129   3.037   4.785  0.5510 -0.4746 -0.0612
 7825WAT     H132006   6.147   3.122   4.790 -1.6940  0.0514  0.3578
 7825WAT     H232007   6.149   3.016   4.704  1.6767  0.3165 -0.0068
 7825WAT    EPW32008   6.134   3.047   4.774 -0.4119 -0.2120 -0.1108
 7826WAT      O32009   1.663   7.031   1.318  0.2041 -0.1870  0.5953
 7826WAT     H132010   1.583   6.996   1.319  0.0808  0.1155  1.6776
 7826WAT     H232011   1.660   7.084   1.249 -0.5145 -0.2152  0.5938
 7826WAT    EPW32012   1.650   7.034   1.308 -0.1394 -0.7098  0.3068
 7827WAT      O32013  -0.003   7.581   5.539 -0.0809  0.2570  0.2092
 7827WAT     H132014   0.053   7.546   5.481  1.2682  1.0328  0.9988
 7827WAT     H232015   0.048   7.605   5.605 -1.3116  1.3823  0.7956
 7827WAT    EPW32016   0.013   7.579   5.540 -0.2327 -0.0457  0.1924
 7828WAT      O32017   1.236   1.944   5.984  1.0112 -0.3117 -0.7512
 7828WAT     H132018   1.258   1.865   5.952 -0.0485 -0.0864 -2.0966
 7828WAT     H232019   1.210   1.988   5.914  0.1650  0.7634  0.2086
 7828WAT    EPW32020   1.236   1.939   5.969  0.2334  0.2557  0.0277
 7829WAT      O32021   1.169   0.367   2.972 -0.1089  0.1168  1.0836
 7829WAT     H132022   1.137   0.340   2.896 -0.0842 -1.4289  1.5888
 7829WAT     H232023   1.098   0.389   3.018 -0.0689  2.4347  0.1905
 7829WAT    EPW32024   1.154   0.366   2.968  0.3300 -0.0009  0.2750
 7830WAT      O32025   0.411   4.417   4.907 -0.8454  0.5443  0.1166
 7830WAT     H132026   0.459   4.426   4.834 -0.3739 -0.3549  0.2986
 7830WAT     H232027   0.445   4.346   4.945 -1.5005  0.6358  0.8971
 7830WAT    EPW32028   0.423   4.407   4.902 -0.0343  0.0855  0.0200
 7831WAT      O32029   5.182   2.446   3.803  0.0485  0.6169  0.0177
 7831WAT     H132030   5.230   2.462   3.874  0.5214  0.5297 -0.2798
 7831WAT     H232031   5.154   2.364   3.815  0.7519  0.3365 -0.2562
 7831WAT    EPW32032   5.185   2.436   3.815 -0.3332  0.4376  0.4262
 7832WAT      O32033   3.888   6.566   1.722 -0.5247 -0.2643 -0.3257
 7832WAT     H132034   3.892   6.521   1.796  0.4006  0.0301 -0.1840
 7832WAT     H232035   3.848   6.512   1.667 -1.4833 -0.3753  0.4610
 7832WAT    EPW32036   3.883   6.551   1.724  0.4042 -0.3863 -0.4503
 7833WAT      O32037   2.552   6.742   6.418 -0.4167 -0.2913  0.4810
 7833WAT     H132038   2.521   6.823   6.428  1.0521  0.6250 -1.5725
 7833WAT     H232039   2.514   6.715   6.343  3.2913  0.8337 -2.0672
 7833WAT    EPW32040   2.542   6.750   6.408  0.1948  0.3721 -0.0388
 7834WAT      O32041   4.590   4.192   6.139  0.0459  0.0213  0.0883
 7834WAT     H132042   4.598   4.184   6.225  1.2416 -3.4968 -0.1793
 7834WAT     H232043   4.504   4.184   6.126  0.0669 -2.4090  0.8915
 7834WAT    EPW32044   4.578   4.189   6.150 -0.2045 -0.2612  0.3514
 7835WAT      O32045   3.022   6.812   4.593  0.9180 -0.2645 -0.1342
 7835WAT     H132046   3.034   6.729   4.618 -0.2294 -0.7416 -1.0428
 7835WAT     H232047   3.002   6.853   4.667 -0.2117 -1.1784  0.1045
 7835WAT    EPW32048   3.021   6.806   4.607  0.1976  0.7034  0.1649
 7836WAT      O32049   2.251   2.812   2.009  0.5754 -0.3123  0.6520
 7836WAT     H132050   2.209   2.867   1.957  1.5174 -1.3663 -1.3403
 7836WAT     H232051   2.196   2.800   2.076 -2.1175 -1.2589 -1.5438
 7836WAT    EPW32052   2.237   2.818   2.011 -0.5628  0.1276 -0.1377
 7837WAT      O32053   3.321   1.511   3.656  0.4381  0.1816 -0.9071
 7837WAT     H132054   3.389   1.486   3.705  1.0584  1.2045 -1.2403
 7837WAT     H232055   3.353   1.572   3.603 -0.8380  1.0672 -0.7307
 7837WAT    EPW32056   3.336   1.516   3.656  0.2733 -0.5429  0.1064
 7838WAT      O32057   6.878   6.223   0.329  0.0028  0.3232 -0.0142
 7838WAT     H132058   6.911   6.212   0.249  1.3787 -1.1544  0.7104
 7838WAT     H232059   6.846   6.144   0.349  1.7597 -0.0358  1.7424
 7838WAT    EPW32060   6.878   6.210   0.320  0.2269  0.0776  0.7331
 7839WAT      O32061   2.400   1.523   5.830  0.3482  0.4079 -0.2745
 7839WAT     H132062   2.461   1.552   5.776  0.1250  0.9967 -0.2106
 7839WAT     H232063   2.327   1.561   5.802  0.5270  2.3350  1.6177
 7839WAT    EPW32064   2.398   1.533   5.818  0.9456  0.1869  0.2256
 7840WAT      O32065   2.863   4.004   6.369 -0.4343  0.1077  0.5450
 7840WAT     H132066   2.831   3.924   6.355  1.2329 -0.2954 -1.4242
 7840WAT     H232067   2.792   4.050   6.394 -1.5980 -1.7391  0.8483
 7840WAT    EPW32068   2.848   3.999   6.370 -0.3218 -0.3921 -0.0754
 7841WAT      O32069   1.001   0.605   6.599 -0.0761  0.3492  0.4618
 7841WAT     H132070   1.019   0.605   6.684  1.0494  0.8726  0.2498
 7841WAT     H232071   1.040   0.533   6.570  0.2315  0.5891  0.2699
 7841WAT    EPW32072   1.010   0.594   6.607  0.1430  0.8351 -0.5999
 7842WAT      O32073   4.539   2.763   7.348 -0.2918 -0.1868  0.2151
 7842WAT     H132074   4.582   2.782   7.421  0.6803 -0.0166 -0.3893
 7842WAT     H232075   4.530   2.840   7.309  1.1096 -0.5325 -0.8584
 7842WAT    EPW32076   4.544   2.777   7.353 -0.1654 -0.8100 -0.1899
 7843WAT      O32077   1.892   4.670   7.383  0.0474 -0.6856  0.4139
 7843WAT     H132078   1.940   4.718   7.437 -2.2832  1.5981  0.6630
 7843WAT     H232079   1.851   4.614   7.435  0.8544 -1.2694  0.4418
 7843WAT    EPW32080   1.893   4.669   7.398 -0.7275 -0.1416  0.1633
 7844WAT      O32081   6.977   2.259   0.028  0.0735  0.0632  0.4144
 7844WAT     H132082   7.030   2.327   0.043 -1.2374  1.3902 -0.7514
 7844WAT     H232083   6.899   2.288   0.053 -0.9800 -0.0285 -2.4651
 7844WAT    EPW32084   6.973   2.274   0.034  0.1490 -0.5024 -0.3617
 7845WAT      O32085   3.226   5.902   3.315  0.0506 -0.1623 -0.0184
 7845WAT     H132086   3.260   5.824   3.294 -0.8872 -0.4113 -0.6384
 7845WAT     H232087   3.231   5.947   3.241  2.0832  0.9763  0.7042
 7845WAT    EPW32088   3.232   5.897   3.301 -0.0202 -0.2206  0.1666
 7846WAT      O32089   2.444   6.235   2.225  0.4575 -0.1820  0.1986
 7846WAT     H132090   2.453   6.313   2.263 -0.9183 -0.8224  1.9480
 7846WAT     H232091   2.366   6.241   2.186 -0.4256 -1.1818  1.7205
 7846WAT    EPW32092   2.434   6.248   2.225  0.0350 -0.3536 -0.3090
 7847WAT      O32093   6.520   3.794   2.265  0.2772  0.2463 -0.4217
 7847WAT     H132094   6.495   3.711   2.273  1.3061 -0.1024 -0.5756
 7847WAT     H232095   6.574   3.806   2.333 -0.5914  1.0894  0.1430
 7847WAT    EPW32096   6.524   3.783   2.277 -0.1693  0.8388  0.4036
 7848WAT      O32097   5.632   6.751   3.955 -0.9644 -0.0234  0.4811
 7848WAT     H132098   5.591   6.788   3.888 -1.0612 -1.0648 -0.0581
 7848WAT     H232099   5.694   6.809   3.976  0.8543 -0.7990 -2.2687
 7848WAT    EPW32100   5.635   6.765   3.948  0.4717 -0.3558 -0.4769
 7849WAT      O32101   4.535   0.870   4.796 -0.2007  0.6422  0.3780
 7849WAT     H132102   4.454   0.872   4.827 -1.2710 -0.6782 -2.0432
 7849WAT     H232103   4.580   0.918   4.853 -2.6759  1.4960  1.7678
 7849WAT    EPW32104   4.530   0.877   4.809  0.1824  0.3096  0.1746
 7850WAT      O32105   7.033   0.575   1.444 -1.0875 -0.3475  0.2558
 7850WAT     H132106   6.959   0.620   1.441 -0.7147  0.3044 -3.1128
 7850WAT     H232107   7.015   0.502   1.399  0.6933  0.6752 -2.3327
 7850WAT    EPW32108   7.020   0.571   1.437  0.5755 -0.2009  0.6572
 7851WAT      O32109   0.657   4.328   3.719 -0.4456  0.0274  0.3615
 7851WAT     H132110   0.615   4.267   3.672 -1.1199 -0.6354  1.7643
 7851WAT     H232111   0.620   4.322   3.798  1.9214 -0.2401  1.5600
 7851WAT    EPW32112   0.645   4.318   3.724  0.2372  0.1489  0.1776
 7852WAT      O32113   5.096   7.540   4.827  0.6672 -0.5650 -0.1545
 7852WAT     H132114   5.030   7.560   4.880  0.3146 -1.5718 -0.2027
 7852WAT     H232115   5.064   7.554   4.747  0.2163 -1.8488 -0.2164
 7852WAT    EPW32116   5.082   7.545   4.823  0.4070  0.0406 -0.6360
 7853WAT      O32117   5.926   3.992   3.015 -0.4550 -0.1245 -0.2731
 7853WAT     H132118   6.008   4.022   3.018 -0.6110  0.2298  0.9318
 7853WAT     H232119   5.882   4.055   2.973 -0.5670  0.8903  1.2742
 7853WAT    EPW32120   5.932   4.006   3.009 -0.3664 -0.3198  0.3134
 7854WAT      O32121   4.385   1.744   3.316 -0.0662 -0.4289  0.1165
 7854WAT     H132122   4.338   1.707   3.252  0.0963  0.0318 -0.2744
 7854WAT     H232123   4.408   1.822   3.283  0.6628 -0.4945  0.4350
 7854WAT    EPW32124   4.382   1.750   3.302  0.4019  0.3562  0.6764
 7855WAT      O32125   6.416   5.518   6.303 -0.0185 -0.3181  0.5266
 7855WAT     H132126   6.436   5.603   6.301 -2.3898  0.4007  2.4891
 7855WAT     H232127   6.371   5.506   6.229  1.0628 -0.1201 -0.1845
 7855WAT    EPW32128   6.412   5.529   6.292  0.6275 -0.1439 -0.1597
 7856WAT      O32129   5.438   5.640   0.413 -0.3596 -0.0854 -0.3321
 7856WAT     H132130   5.400   5.717   0.431  0.1564 -0.0568  0.6710
 7856WAT     H232131   5.504   5.661   0.360  1.3763  0.5382  1.9323
 7856WAT    EPW32132   5.442   5.655   0.408 -0.1232  0.2998  0.9576
 7857WAT      O32133   6.258   3.988   0.819  0.3494 -0.5248 -0.5594
 7857WAT     H132134   6.346   3.990   0.816  0.3291 -0.4338 -1.2251
 7857WAT     H232135   6.241   3.905   0.840  0.5942 -0.6496 -0.8268
 7857WAT    EPW32136   6.269   3.976   0.822 -0.2369  0.5093  0.1861
 7858WAT      O32137   5.264   7.135   2.664  0.7232 -0.7554 -0.2051
 7858WAT     H132138   5.215   7.205   2.643  1.2773 -0.3332 -0.1025
 7858WAT     H232139   5.206   7.080   2.699  0.7755  0.9898  2.9402
 7858WAT    EPW32140   5.248   7.137   2.666 -0.1683  0.3076  0.1709
 7859WAT      O32141   2.994   0.554   6.960 -0.3998  0.0965 -0.5383
 7859WAT     H132142   2.966   0.479   6.926 -0.7809 -0.5870  1.2130
 7859WAT     H232143   3.080   0.541   6.971 -0.9284 -1.5314  3.0005
 7859WAT    EPW32144   3.003   0.541   6.957 -0.2166  0.2079 -0.0501
 7860WAT      O32145   4.613   0.143   3.582 -0.1940 -0.1988 -0.0116
 7860WAT     H132146   4.599   0.209   3.637  0.0827  0.4848 -0.7506
 7860WAT     H232147   4.607   0.072   3.633 -2.0853  0.2741  0.4990
 7860WAT    EPW32148   4.610   0.142   3.598 -0.1288 -0.9707  0.4150
 7861WAT      O32149   3.276   0.024   2.700 -0.3183 -0.0138  0.3485
 7861WAT     H132150   3.236   0.073   2.641 -0.0267  1.8487  1.5969
 7861WAT     H232151   3.351   0.066   2.715 -1.1038  0.6110  3.2265
 7861WAT    EPW32152   3.281   0.037   2.694 -0.3675  0.1061  0.1479
 7862WAT      O32153   6.994   5.479   5.975 -0.5453  0.3539 -0.4834
 7862WAT     H132154   7.050   5.420   6.007 -1.4901 -0.0306  0.5209
 7862WAT     H232155   6.917   5.439   5.979 -1.0728  1.3034 -0.7415
 7862WAT    EPW32156   6.991   5.464   5.980 -0.4787 -0.3648  0.4534
 7863WAT      O32157   7.382   3.892   5.283 -0.2916 -0.2482  0.3438
 7863WAT     H132158   7.468   3.890   5.297 -0.1155  0.1102 -0.5589
 7863WAT     H232159   7.376   3.925   5.202 -1.1871 -2.2660 -0.4710
 7863WAT    EPW32160   7.394   3.897   5.273  0.1324 -0.3493  0.3277
 7864WAT      O32161   2.459   4.248   3.959 -0.1070 -0.0840 -0.3951
 7864WAT     H132162   2.427   4.300   4.021 -1.5258 -0.9102 -0.4070
 7864WAT     H232163   2.393   4.195   3.939  0.5270 -0.2914 -2.1470
 7864WAT    EPW32164   2.445   4.248   3.965  0.1547 -0.6625 -0.0833
 7865WAT      O32165   6.300   4.353   5.577  0.1313 -0.0897 -0.4579
 7865WAT     H132166   6.383   4.326   5.584 -0.0775 -0.4713  0.8456
 7865WAT     H232167   6.255   4.278   5.571 -0.0707  0.1242 -2.3312
 7865WAT    EPW32168   6.305   4.338   5.577 -0.1800 -0.5176  0.2928
 7866WAT      O32169   2.329   4.964   1.093  0.0443  0.5129  0.0968
 7866WAT     H132170   2.337   4.997   1.012  0.7071  0.0249 -0.0447
 7866WAT     H232171   2.285   5.026   1.136  1.4367  1.6922 -0.1035
 7866WAT    EPW32172   2.323   4.978   1.087  0.4067 -0.2564  0.3530
 7867WAT      O32173   7.324   6.641   5.240  0.1513 -0.1345 -0.2953
 7867WAT     H132174   7.335   6.721   5.272  1.4541 -0.3406 -0.1866
 7867WAT     H232175   7.237   6.635   5.230  0.0430  1.3851 -0.5867
 7867WAT    EPW32176   7.313   6.652   5.243 -0.2379 -0.2660  0.3709
 7868WAT      O32177   2.162   5.554   3.244  0.3212  0.0681  0.0678
 7868WAT     H132178   2.132   5.606   3.307  1.4753 -0.0920  0.7783
 7868WAT     H232179   2.211   5.495   3.287  0.4833 -0.5316 -0.8957
 7868WAT    EPW32180   2.165   5.553   3.259  0.3539  0.6651  0.0691
 7869WAT      O32181   7.060   3.921   4.708  0.4717 -0.8368 -0.1777
 7869WAT     H132182   7.084   3.909   4.625  2.5609 -1.4347  0.4612
 7869WAT     H232183   7.128   3.891   4.754 -0.4268 -0.0721  1.7566
 7869WAT    EPW32184   7.073   3.914   4.703 -0.0217 -0.4210 -0.0764
 7870WAT      O32185   2.795   0.213   3.103  0.1825 -0.1865  0.3865
 7870WAT     H132186   2.839   0.146   3.069  2.2347  0.5840  1.3726
 7870WAT     H232187   2.773   0.185   3.183  0.9413  0.2731  0.7567
 7870WAT    EPW32188   2.798   0.199   3.110  0.2500  0.2808  0.7871
 7871WAT      O32189   1.572   6.346   5.996  0.0981  0.2898 -0.2507
 7871WAT     H132190   1.604   6.305   6.066 -0.2843  0.0242 -0.2273
 7871WAT     H232191   1.574   6.285   5.934 -2.3879 -0.4593  0.2881
 7871WAT    EPW32192   1.577   6.331   5.997  0.4025 -0.2530  0.4849
 7872WAT      O32193   6.488   4.384   1.975 -0.5191  0.4698  0.1188
 7872WAT     H132194   6.466   4.303   1.953 -0.5781  0.8097 -1.1393
 7872WAT     H232195   6.438   4.434   1.924 -1.6995  1.3636  2.0186
 7872WAT    EPW32196   6.477   4.380   1.964 -0.0655  0.2277  0.1231
 7873WAT      O32197   4.045   0.290   6.211 -0.6466 -0.1754 -0.4962
 7873WAT     H132198   4.005   0.227   6.256  0.4374 -0.2973  0.3611
 7873WAT     H232199   3.982   0.349   6.197 -0.8664  0.4018  2.2098
 7873WAT    EPW32200   4.030   0.290   6.216  0.1060 -0.1861 -0.1776
 7874WAT      O32201   7.656   4.257   3.949  0.5075  0.3432 -0.4331
 7874WAT     H132202   7.620   4.205   3.889  0.8624  0.2406 -0.5613
 7874WAT     H232203   7.609   4.330   3.943 -0.0064  0.0349 -0.2395
 7874WAT    EPW32204   7.644   4.260   3.939  0.5889 -0.9789 -0.0864
 7875WAT      O32205   2.303   2.396   5.091 -0.1836 -0.4855  0.3428
 7875WAT     H132206   2.345   2.320   5.096  0.1823 -0.4546 -1.4940
 7875WAT     H232207   2.247   2.393   5.158  0.2486 -2.0988  0.6695
 7875WAT    EPW32208   2.301   2.384   5.102  0.6471  0.2566  0.3783
 7876WAT      O32209   5.225   7.317   4.943  0.1083  0.4577 -0.0907
 7876WAT     H132210   5.195   7.394   4.915  1.9006  0.9262 -0.8545
 7876WAT     H232211   5.153   7.275   4.969 -0.7937  2.8227  1.5133
 7876WAT    EPW32212   5.210   7.322   4.943  0.1310  0.6659  0.3201
 7877WAT      O32213   2.856   4.740   1.989  0.2607  0.0144  0.6414
 7877WAT     H132214   2.771   4.719   1.994 -0.1003  1.3671  0.5303
 7877WAT     H232215   2.886   4.725   2.069 -0.4616  1.0562  1.1141
 7877WAT    EPW32216   2.848   4.735   2.001 -0.3633  0.3547 -0.6737
 7878WAT      O32217   7.074   5.220   1.021  0.2045  0.0341 -0.2193
 7878WAT     H132218   7.105   5.225   0.940 -1.1759 -1.8573 -0.9254
 7878WAT     H232219   7.085   5.136   1.043 -0.9960  0.1198  0.8923
 7878WAT    EPW32220   7.080   5.208   1.013  0.2325  0.1916 -0.5606
 7879WAT      O32221   0.106   7.426   1.020  0.0547 -0.4381  0.2272
 7879WAT     H132222   0.188   7.412   0.993  0.7928  1.6054  1.2147
 7879WAT     H232223   0.059   7.371   0.971  2.0978 -2.6405  0.5186
 7879WAT    EPW32224   0.111   7.416   1.009 -0.0234  0.2736  0.0698
 7880WAT      O32225   2.698   5.701   5.763  0.3104  0.8277  0.0013
 7880WAT     H132226   2.782   5.706   5.739  0.0267  1.3763 -0.9371
 7880WAT     H232227   2.656   5.745   5.701 -0.7105  0.3256  0.3052
 7880WAT    EPW32228   2.704   5.708   5.750 -0.3364  0.0091  0.0578
 7881WAT      O32229   1.851   0.715   2.499 -0.6152  0.2692 -0.4665
 7881WAT     H132230   1.901   0.768   2.548  1.2322 -0.9275 -0.9338
 7881WAT     H232231   1.815   0.768   2.441 -0.1182  1.2420  0.0937
 7881WAT    EPW32232   1.853   0.730   2.498  0.0457  0.4759  0.3046
 7882WAT      O32233   4.606   1.814   2.064  0.3469 -0.3505  0.5816
 7882WAT     H132234   4.633   1.767   2.133 -0.6954 -2.7566 -0.5366
 7882WAT     H232235   4.537   1.857   2.095  1.5056  0.7805  1.7205
 7882WAT    EPW32236   4.599   1.813   2.079 -0.3067  0.0100  0.1239
 7883WAT      O32237   2.652   5.358   0.835 -0.1371 -0.4434  0.4486
 7883WAT     H132238   2.617   5.405   0.771 -0.5241  0.2963  1.1794
 7883WAT     H232239   2.737   5.373   0.828 -0.2255  0.0662  0.4309
 7883WAT    EPW32240   2.659   5.368   0.824 -0.2610 -0.7765  0.0897
 7884WAT      O32241   2.543   5.249   5.052 -0.1734 -0.6053 -0.2282
 7884WAT     H132242   2.612   5.210   5.016  0.2752  0.8991 -1.0751
 7884WAT     H232243   2.565   5.333   5.055 -1.1352 -0.3596  1.4721
 7884WAT    EPW32244   2.556   5.255   5.047  0.4081 -0.7497  0.4119
 7885WAT      O32245   2.269   1.171   0.944 -0.0557 -0.2477  0.3945
 7885WAT     H132246   2.225   1.099   0.968  0.8288 -0.6498  0.8902
 7885WAT     H232247   2.353   1.149   0.958  0.2959  0.5467 -0.3665
 7885WAT    EPW32248   2.275   1.157   0.950  0.1031 -0.5924  0.4506
 7886WAT      O32249   3.711   6.947   3.597 -0.1162 -0.3941  0.7389
 7886WAT     H132250   3.759   6.929   3.526  1.1414 -0.3068  1.5428
 7886WAT     H232251   3.703   6.869   3.636 -1.9936 -0.7152 -0.1649
 7886WAT    EPW32252   3.717   6.933   3.592 -0.4936 -0.0371 -0.2102
 7887WAT      O32253   1.908   7.172   1.600 -0.0217  0.6246 -0.1319
 7887WAT     H132254   1.916   7.250   1.639 -1.4492  0.6631  0.1534
 7887WAT     H232255   1.822   7.156   1.604  0.1709 -0.7042 -0.7038
 7887WAT    EPW32256   1.896   7.181   1.606 -0.1663 -0.2604 -0.4963
 7888WAT      O32257   1.743   6.304   0.165  0.4569  0.2643  0.6527
 7888WAT     H132258   1.772   6.380   0.198  3.1284 -0.1102 -0.5668
 7888WAT     H232259   1.700   6.327   0.093  0.3125  0.6604  0.8615
 7888WAT    EPW32260   1.741   6.319   0.159  0.7139 -0.3680 -0.3488
 7889WAT      O32261   4.471   0.503   7.513 -0.2739  0.3608  0.0723
 7889WAT     H132262   4.472   0.477   7.430 -1.4618  0.2852  0.0724
 7889WAT     H232263   4.502   0.434   7.557  0.4342  0.4298 -0.2988
 7889WAT    EPW32264   4.476   0.489   7.508  0.1565 -0.4926  0.3349
 7890WAT      O32265   4.174   7.361   1.985  0.2643 -0.1903 -0.3233
 7890WAT     H132266   4.111   7.420   1.991  2.4185  2.3138 -0.3746
 7890WAT     H232267   4.156   7.318   1.911 -2.2606 -0.7996  0.5768
 7890WAT    EPW32268   4.162   7.363   1.975  0.0831  0.5835  0.1723
 7891WAT      O32269   4.819   5.334   5.776  0.4091 -0.2056  0.1933
 7891WAT     H132270   4.793   5.256   5.746  0.5929  0.3149 -1.4207
 7891WAT     H232271   4.780   5.391   5.722  2.7737  0.6745 -0.7320
 7891WAT    EPW32272   4.809   5.331   5.763 -0.4374 -0.5559 -0.2979
 7892WAT      O32273   5.524   2.426   1.979  0.2587 -0.3608  0.0474
 7892WAT     H132274   5.573   2.463   1.916 -0.6901  0.7651 -0.0620
 7892WAT     H232275   5.528   2.341   1.959 -1.3077  0.0671 -2.5589
 7892WAT    EPW32276   5.532   2.419   1.966  0.2589  0.6319  0.4232
 7893WAT      O32277   2.950   3.391   1.083 -0.3657  0.1350  0.2056
 7893WAT     H132278   2.902   3.390   1.010 -0.1954  0.4074  0.0898
 7893WAT     H232279   2.924   3.319   1.125  0.8815 -1.0535 -0.9936
 7893WAT    EPW32280   2.939   3.380   1.079  0.0802  0.2591 -0.1437
 7894WAT      O32281   5.819   4.965   3.836  0.1887 -0.2926  0.5069
 7894WAT     H132282   5.807   4.920   3.762  1.1958 -2.3430  1.4996
 7894WAT     H232283   5.776   5.040   3.822  1.8217  0.2206 -2.8611
 7894WAT    EPW32284   5.811   4.969   3.823  0.3471  1.1520  0.7336
 7895WAT      O32285   4.763   2.669   1.777  0.0705  0.2875  0.4545
 7895WAT     H132286   4.815   2.724   1.821 -0.1573  1.4330 -0.6530
 7895WAT     H232287   4.814   2.641   1.712 -0.1027 -0.1207  0.4942
 7895WAT    EPW32288   4.779   2.673   1.774  0.0998  0.4622  0.4405
 7896WAT      O32289   2.004   5.729   3.917  0.0792  0.0640 -0.3325
 7896WAT     H132290   2.050   5.657   3.897 -0.1813  0.1882 -1.4581
 7896WAT     H232291   2.002   5.773   3.842 -2.1377 -0.0737 -0.4228
 7896WAT    EPW32292   2.011   5.725   3.903  0.3022 -0.1296  0.2199
 7897WAT      O32293   0.599   7.537   4.225 -0.7934  0.4491  0.0179
 7897WAT     H132294   0.630   7.545   4.144  0.1516  0.9945  0.4063
 7897WAT     H232295   0.524   7.494   4.215 -0.8797  0.8412 -1.1800
 7897WAT    EPW32296   0.593   7.532   4.212  0.1432  0.3054  0.1097
 7898WAT      O32297   5.402   3.188   7.200  0.0658  0.8776  0.3827
 7898WAT     H132298   5.404   3.239   7.270  0.5626  1.4292 -0.0243
 7898WAT     H232299   5.407   3.107   7.233  0.8112  1.1485  0.9663
 7898WAT    EPW32300   5.403   3.183   7.215  0.1231  0.0968 -0.5154
 7899WAT      O32301   3.380   4.318   1.783 -0.2575  0.4698  0.3213
 7899WAT     H132302   3.372   4.327   1.870 -2.5667  0.8374  0.1338
 7899WAT     H232303   3.376   4.232   1.771  1.1499  0.3268  0.6007
 7899WAT    EPW32304   3.378   4.307   1.794 -0.3903 -0.3127  0.0364
 7900WAT      O32305   5.037   1.116   4.008  0.0098  0.3570 -0.0314
 7900WAT     H132306   5.109   1.164   4.021  0.1060  0.9127 -2.2298
 7900WAT     H232307   5.055   1.072   3.935 -1.0999 -1.0846  0.5253
 7900WAT    EPW32308   5.050   1.117   3.999  0.1841 -0.4861 -0.2928
 7901WAT      O32309   7.601   0.020   2.695 -0.3421 -0.3339 -0.0015
 7901WAT     H132310   7.678  -0.018   2.712 -1.3773 -2.3750  0.4327
 7901WAT     H232311   7.619   0.073   2.628  2.0305  1.4480  1.8699
 7901WAT    EPW32312   7.615   0.022   2.688  0.0973  0.3770  0.2932
 7902WAT      O32313   2.705   2.340   0.567 -0.3616  0.6932 -0.4896
 7902WAT     H132314   2.748   2.348   0.491  0.6798 -4.2105 -0.7816
 7902WAT     H232315   2.766   2.358   0.627  0.4146 -0.3750 -0.9154
 7902WAT    EPW32316   2.720   2.344   0.565 -0.1297 -0.0696 -0.6513
 7903WAT      O32317   1.819   4.163   0.308  0.6199 -0.1771  0.5912
 7903WAT     H132318   1.892   4.160   0.260  0.4254  2.7482 -0.1255
 7903WAT     H232319   1.764   4.111   0.265  1.3783 -0.0262 -0.6263
 7903WAT    EPW32320   1.822   4.155   0.294 -0.0548 -0.0858 -0.4891
 7904WAT      O32321   6.154   1.206   4.363 -0.2220 -0.4788  0.5416
 7904WAT     H132322   6.142   1.120   4.361  0.6838 -0.6116  0.2433
 7904WAT     H232323   6.074   1.238   4.370 -0.8378 -1.2799 -1.8312
 7904WAT    EPW32324   6.141   1.198   4.363  0.0169 -0.7233 -0.3439
 7905WAT      O32325   1.176   5.977   0.655 -0.3739 -0.6808 -0.2589
 7905WAT     H132326   1.145   6.041   0.705  1.1425  0.9345 -1.2887
 7905WAT     H232327   1.250   5.953   0.696  1.0508  0.8685 -1.7483
 7905WAT    EPW32328   1.183   5.983   0.669 -0.0615  0.1373  0.1682
 7906WAT      O32329   3.225   1.950   1.943 -0.2549  0.5469 -0.2263
 7906WAT     H132330   3.310   1.961   1.925 -0.2162 -1.3903 -1.6295
 7906WAT     H232331   3.203   2.023   1.985  1.9335  1.4171 -0.4472
 7906WAT    EPW32332   3.234   1.962   1.946 -0.3614  0.8303 -0.0468
 7907WAT      O32333   3.171   7.466   2.423  0.0638 -0.3208 -0.1109
 7907WAT     H132334   3.217   7.540   2.423  0.5224 -0.5832 -1.2327
 7907WAT     H232335   3.102   7.485   2.373  1.2887 -1.2542 -2.3024
 7907WAT    EPW32336   3.167   7.479   2.415  0.0364  0.4567 -0.2905
 7908WAT      O32337   2.713   1.056   2.369  0.0777 -0.0717 -0.3554
 7908WAT     H132338   2.733   1.014   2.295 -0.8968  0.6556 -1.0605
 7908WAT     H232339   2.772   1.119   2.373  0.3627 -0.3402 -0.3169
 7908WAT    EPW32340   2.724   1.059   2.358 -0.3234 -0.2661 -0.2635
 7909WAT      O32341   2.146   4.280   5.188  0.1971 -0.2287  0.2764
 7909WAT     H132342   2.101   4.329   5.244 -1.5457 -0.5885 -0.7527
 7909WAT     H232343   2.145   4.201   5.225 -0.2834 -0.3035  0.0989
 7909WAT    EPW32344   2.139   4.275   5.202  0.2569 -0.8143  0.1679
 7910WAT      O32345   5.775   0.690   5.125  0.7105 -0.2784 -0.1209
 7910WAT     H132346   5.801   0.640   5.192 -0.3448 -1.4084 -0.5251
 7910WAT     H232347   5.785   0.638   5.056 -0.6564 -0.0403 -0.5220
 7910WAT    EPW32348   5.781   0.675   5.125  0.2798  0.5911  0.2336
 7911WAT      O32349   1.316   1.025   3.122 -0.3513  0.4617 -0.4795
 7911WAT     H132350   1.379   1.027   3.182 -0.5831  1.4599 -0.2499
 7911WAT     H232351   1.348   0.973   3.060  0.1829 -0.0241  0.1816
 7911WAT    EPW32352   1.330   1.018   3.122  0.2918  0.2473  0.3245
 7912WAT      O32353   4.406   4.787   5.851 -0.1394 -0.3474 -0.3006
 7912WAT     H132354   4.345   4.732   5.880 -0.4420 -0.2725 -0.7820
 7912WAT     H232355   4.385   4.862   5.889  0.1172 -0.5000  0.1495
 7912WAT    EPW32356   4.394   4.790   5.861 -0.2270  0.1796  0.1917
 7913WAT      O32357   4.991   7.501   5.309  0.1613 -0.4160  0.2435
 7913WAT     H132358   4.986   7.415   5.296 -1.6029 -0.4920  1.1842
 7913WAT     H232359   4.993   7.510   5.395 -0.0542  0.5065  0.1716
 7913WAT    EPW32360   4.991   7.490   5.320 -0.4284  0.4315 -0.5184
 7914WAT      O32361   6.083   6.274   1.538 -0.0185 -0.1127  0.1957
 7914WAT     H132362   6.129   6.291   1.466 -1.7204 -0.6076 -1.0549
 7914WAT     H232363   6.142   6.283   1.602  1.2199  1.7038 -1.1009
 7914WAT    EPW32364   6.099   6.277   1.537  0.0290  0.5205 -0.2312
 7915WAT      O32365   7.521   4.518   1.609 -0.1493  0.1768 -0.0293
 7915WAT     H132366   7.597   4.558   1.625  0.3258  0.0189 -1.6362
 7915WAT     H232367   7.461   4.573   1.639  0.3829  3.0030 -3.4723
 7915WAT    EPW32368   7.524   4.532   1.616 -0.0278 -0.7377 -0.5152
 7916WAT      O32369   4.968   1.882   6.844  0.1973  0.3176 -0.5264
 7916WAT     H132370   4.967   1.860   6.760  2.5003  0.6561 -0.7121
 7916WAT     H232371   4.961   1.969   6.842  0.7833  0.3718 -0.4200
 7916WAT    EPW32372   4.967   1.892   6.831 -0.2920 -0.1422 -0.8705
 7917WAT      O32373   1.119   2.575   2.814  0.0700  0.0231 -0.1377
 7917WAT     H132374   1.121   2.661   2.829  2.0279 -0.2514  1.6546
 7917WAT     H232375   1.191   2.561   2.767 -1.2978 -0.4555 -2.2827
 7917WAT    EPW32376   1.130   2.586   2.809 -0.2221 -0.2926  0.0077
 7918WAT      O32377   3.301   0.015   4.979 -0.0376  0.0136  0.0003
 7918WAT     H132378   3.300   0.083   4.924  0.3008 -0.2145 -0.2962
 7918WAT     H232379   3.338   0.047   5.051 -0.2778  0.2555  0.0173
 7918WAT    EPW32380   3.306   0.030   4.982 -0.4544  0.6363 -0.0529
 7919WAT      O32381   1.293   1.704   5.875 -0.0290  0.1174 -0.6024
 7919WAT     H132382   1.305   1.732   5.793 -1.5912  0.4775 -0.7513
 7919WAT     H232383   1.216   1.663   5.872 -0.6488  1.0670  0.8847
 7919WAT    EPW32384   1.283   1.702   5.863 -1.1931 -0.0391 -0.1052
 7920WAT      O32385   6.995   6.862   2.507 -0.3944  0.0492 -0.0189
 7920WAT     H132386   6.936   6.907   2.553 -0.5704 -0.4668  0.2648
 7920WAT     H232387   7.027   6.922   2.452  0.2096  0.8200  1.1269
 7920WAT    EPW32388   6.991   6.878   2.505 -0.1420  0.2878 -0.1530
 7921WAT      O32389   2.254   1.952   7.111 -0.5524  0.0256 -0.0747
 7921WAT     H132390   2.190   1.973   7.056 -0.2489  0.9980 -0.0615
 7921WAT     H232391   2.264   2.023   7.161  0.8935  0.0937 -0.4208
 7921WAT    EPW32392   2.246   1.965   7.110  0.1615  0.5549 -0.3398
 7922WAT      O32393   6.870   4.545   0.085  0.0064  0.2227 -0.1905
 7922WAT     H132394   6.885   4.631   0.087 -0.0050  0.2201  0.1223
 7922WAT     H232395   6.937   4.514   0.039 -0.4400  0.4873 -1.0295
 7922WAT    EPW32396   6.883   4.553   0.078 -0.0160  0.3252 -0.1127
 7923WAT      O32397   6.636   0.450   3.982  0.7177  0.2469 -0.5080
 7923WAT     H132398   6.632   0.386   3.923  1.1360  0.8488 -1.2003
 7923WAT     H232399   6.613   0.521   3.938  0.7541  0.6639  0.1261
 7923WAT    EPW32400   6.632   0.451   3.967 -0.1015 -0.5837  0.1216
 7924WAT      O32401   5.475   5.374   3.794  0.0498  0.0147 -0.0984
 7924WAT     H132402   5.492   5.289   3.783  0.8619  0.1885 -0.2595
 7924WAT     H232403   5.553   5.412   3.784 -0.2820  0.7697  0.0982
 7924WAT    EPW32404   5.489   5.367   3.791  0.0744  0.0632 -0.4482
 7925WAT      O32405   2.992   5.904   7.278 -0.5858  0.4050  0.6696
 7925WAT     H132406   3.035   5.862   7.341  1.1560  0.0355 -0.6851
 7925WAT     H232407   3.013   5.987   7.291  2.0707  0.0983 -0.9410
 7925WAT    EPW32408   3.001   5.910   7.289  0.2776  0.0112  0.2647
 7926WAT      O32409   3.203   1.504   1.796  0.1162 -0.0512 -0.0143
 7926WAT     H132410   3.278   1.531   1.761  0.5211 -1.2854 -0.1659
 7926WAT     H232411   3.218   1.510   1.882  0.1687  0.2765 -0.0464
 7926WAT    EPW32412   3.217   1.509   1.804  0.4427 -0.5265 -0.4618
 7927WAT      O32413   0.025   3.562   3.663  0.2484  0.0027  0.4000
 7927WAT     H132414  -0.045   3.565   3.611  1.5161 -1.1753 -1.5124
 7927WAT     H232415   0.085   3.608   3.620  1.7124 -2.0062  0.0990
 7927WAT    EPW32416   0.024   3.569   3.649 -0.6047 -0.3905  1.0604
 7928WAT      O32417   0.353   4.557   6.669  0.3505  0.5749  0.8759
 7928WAT     H132418   0.380   4.585   6.747  0.3125  0.4224  0.9442
 7928WAT     H232419   0.272   4.527   6.684  0.2208  0.8420  0.7125
 7928WAT    EPW32420   0.345   4.557   6.683 -0.0408 -0.3327  0.4735
 7929WAT      O32421   4.322   1.269   0.280  0.3378  0.1630 -0.3599
 7929WAT     H132422   4.323   1.252   0.365 -0.7028  0.4702 -0.2779
 7929WAT     H232423   4.293   1.351   0.275  1.3541  0.5071 -0.9663
 7929WAT    EPW32424   4.318   1.279   0.292 -0.1480 -0.0519  0.4671
 7930WAT      O32425   2.388   3.315   2.647  0.2050  0.0916 -0.2807
 7930WAT     H132426   2.470   3.323   2.620  0.3478 -1.0037 -0.2238
 7930WAT     H232427   2.342   3.360   2.588  0.9495  1.9663  0.4905
 7930WAT    EPW32428   2.393   3.323   2.635 -0.4059 -0.3918 -0.4176
 7931WAT      O32429   3.342   4.576   7.365  0.0005  0.2009 -0.1326
 7931WAT     H132430   3.285   4.571   7.300  0.7050  1.3812 -0.8938
 7931WAT     H232431   3.356   4.662   7.374  2.0661 -0.0376 -0.3883
 7931WAT    EPW32432   3.336   4.588   7.357  1.0894  0.4137  0.2370
 7932WAT      O32433   5.925   4.953   4.409  0.1563  0.7063 -0.2257
 7932WAT     H132434   5.895   5.003   4.474 -0.3914  0.3674 -0.2113
 7932WAT     H232435   6.012   4.965   4.413  0.0466  1.5019 -0.1116
 7932WAT    EPW32436   5.934   4.962   4.419  0.5462  0.4192 -0.3078
 7933WAT      O32437   1.657   3.578   2.234  0.8031  0.2446 -0.1094
 7933WAT     H132438   1.675   3.504   2.192 -0.3824 -0.7723  1.1131
 7933WAT     H232439   1.573   3.570   2.256  1.3709  0.6721  2.5143
 7933WAT    EPW32440   1.647   3.566   2.231 -0.1247  0.7466  0.3182
 7934WAT      O32441   5.438   1.240   6.707  0.2418 -0.5315 -0.1634
 7934WAT     H132442   5.442   1.258   6.622 -1.9918 -1.4550 -0.5089
 7934WAT     H232443   5.433   1.153   6.710 -0.6007 -0.4609  0.8569
 7934WAT    EPW32444   5.438   1.230   6.695 -0.0773  0.5687  1.3257
 7935WAT      O32445   6.684   4.828   4.817  0.0708 -0.0163  0.5853
 7935WAT     H132446   6.703   4.913   4.817 -1.1394  0.2745  0.9839
 7935WAT     H232447   6.617   4.822   4.761  1.1354 -0.9653 -0.6523
 7935WAT    EPW32448   6.677   4.840   4.808  0.2596 -0.3039  0.6954
 7936WAT      O32449   3.511   6.482   6.151  0.4568 -0.3357 -0.4234
 7936WAT     H132450   3.454   6.487   6.086  1.1041  0.1060 -0.9764
 7936WAT     H232451   3.534   6.398   6.152 -2.2462 -1.1669  1.6411
 7936WAT    EPW32452   3.506   6.470   6.142  0.1706 -0.3982  0.0454
 7937WAT      O32453   2.329   0.329   1.328 -0.1301  0.0523  0.4913
 7937WAT     H132454   2.273   0.344   1.394  2.2719  1.0174  2.4521
 7937WAT     H232455   2.338   0.407   1.291 -1.4655 -0.4832 -1.1285
 7937WAT    EPW32456   2.322   0.343   1.332  0.2865  0.1094  0.3415
 7938WAT      O32457   2.858   3.229   1.667 -0.1719  0.6643  0.1599
 7938WAT     H132458   2.869   3.143   1.660  0.5190  0.7276  0.4042
 7938WAT     H232459   2.801   3.237   1.733 -2.8502  0.2783 -1.9064
 7938WAT    EPW32460   2.851   3.218   1.676 -0.1430  0.3342  0.2354
 7939WAT      O32461   6.020   0.846   4.191  0.4799  0.1887 -0.2212
 7939WAT     H132462   5.974   0.918   4.171  1.0148  0.1560 -1.6591
 7939WAT     H232463   6.091   0.852   4.141  1.5459 -0.3201  1.1588
 7939WAT    EPW32464   6.023   0.857   4.180 -0.0949  0.3248 -0.2887
 7940WAT      O32465   0.744   3.967   0.102  0.1894 -0.5557 -0.2027
 7940WAT     H132466   0.775   3.989   0.180 -1.4723  2.6017 -0.2843
 7940WAT     H232467   0.816   3.956   0.054  1.2266 -1.9952  1.5311
 7940WAT    EPW32468   0.760   3.968   0.106 -0.1576  0.1389 -0.6574
 7941WAT      O32469   2.793   0.880   2.564 -0.1033 -0.4680  0.0182
 7941WAT     H132470   2.773   0.929   2.495  1.2015 -1.1792 -0.9212
 7941WAT     H232471   2.830   0.809   2.528 -0.2889 -1.3023  1.4150
 7941WAT    EPW32472   2.796   0.877   2.548 -0.1486 -0.0562  0.8411
 7942WAT      O32473   4.218   4.700   1.327  0.4520  0.1516 -0.3430
 7942WAT     H132474   4.206   4.768   1.274 -0.0897 -0.1419 -0.6028
 7942WAT     H232475   4.265   4.644   1.280  1.0740  0.4203 -0.0578
 7942WAT    EPW32476   4.223   4.702   1.312  0.0523 -0.5054 -0.0555
 7943WAT      O32477   3.319   0.696   6.447  0.0769  0.0668 -0.0431
 7943WAT     H132478   3.305   0.631   6.503 -1.0262 -0.6876 -1.1087
 7943WAT     H232479   3.398   0.679   6.414 -0.4299 -1.0947 -0.7182
 7943WAT    EPW32480   3.328   0.684   6.450 -0.4852 -0.0361  0.6795
 7944WAT      O32481   1.979   0.172   4.528 -0.0375 -0.1815 -0.0078
 7944WAT     H132482   2.039   0.228   4.559 -0.1891 -0.5107  0.9061
 7944WAT     H232483   2.025   0.118   4.478  0.0848  0.8653 -1.0889
 7944WAT    EPW32484   1.995   0.172   4.525 -0.3297  0.3432  0.2329
 7945WAT      O32485   4.942   2.105   7.393 -0.2025 -0.3635  0.0063
 7945WAT     H132486   5.029   2.093   7.395 -0.0594  0.6209 -0.1221
 7945WAT     H232487   4.929   2.150   7.320 -1.0281 -1.9681 -0.8829
 7945WAT    EPW32488   4.953   2.110   7.383  0.5492 -0.7684  1.3652
 7946WAT      O32489   1.752   0.279   6.059  0.6633  0.1852 -0.2330
 7946WAT     H132490   1.834   0.296   6.035  0.1671 -0.4307 -2.6781
 7946WAT     H232491   1.706   0.343   6.023 -0.0937 -0.3712 -0.2893
 7946WAT    EPW32492   1.757   0.291   6.050 -0.2432 -0.0763  0.3119
 7947WAT      O32493   4.440   6.451   3.748  0.8144 -0.1682 -0.5965
 7947WAT     H132494   4.480   6.487   3.679  2.3400 -1.4299 -0.4310
 7947WAT     H232495   4.456   6.507   3.813  2.3255 -0.5902 -0.5568
 7947WAT    EPW32496   4.448   6.465   3.747 -0.2566  0.3009  0.3439
 7948WAT      O32497   1.830   2.893   6.801 -0.4467  0.2145 -0.4761
 7948WAT     H132498   1.850   2.977   6.810  0.2229  0.0698 -0.5549
 7948WAT     H232499   1.743   2.892   6.809 -0.4443  0.8828 -0.2697
 7948WAT    EPW32500   1.820   2.905   6.804  0.4657  0.6593 -0.7270
 7949WAT      O32501   0.483   2.108   6.836  0.6072  0.1383 -0.3109
 7949WAT     H132502   0.533   2.118   6.765  1.0835 -0.8116 -0.1328
 7949WAT     H232503   0.408   2.078   6.804  1.2783 -1.6097 -0.3243
 7949WAT    EPW32504   0.479   2.105   6.821  0.4273  0.6304 -0.0879
 7950WAT      O32505   5.424   3.237   6.383  0.2332 -0.0068 -0.0555
 7950WAT     H132506   5.392   3.224   6.303 -0.9841  1.5531  0.1376
 7950WAT     H232507   5.464   3.161   6.401 -1.0911 -1.0904 -1.3864
 7950WAT    EPW32508   5.425   3.224   6.374 -0.0103  0.4618  0.3990
 7951WAT      O32509   6.551   2.195   0.668 -0.7293 -0.3132 -0.0605
 7951WAT     H132510   6.515   2.274   0.670 -0.2751 -0.1078  0.1579
 7951WAT     H232511   6.590   2.189   0.746  0.7886 -0.0205 -0.7650
 7951WAT    EPW32512   6.551   2.206   0.680  0.2421 -0.0587 -0.0623
 7952WAT      O32513   1.482   4.157   3.524  0.0500  0.7344  0.4187
 7952WAT     H132514   1.426   4.222   3.506 -0.1752  0.4491  0.0751
 7952WAT     H232515   1.465   4.138   3.607 -0.9793  0.0684  0.0805
 7952WAT    EPW32516   1.471   4.164   3.533  0.0993 -0.0554 -0.6710
 7953WAT      O32517   0.869   5.177   0.268  0.0330  0.5673 -0.7263
 7953WAT     H132518   0.810   5.215   0.319 -1.7664 -0.4458 -1.9328
 7953WAT     H232519   0.892   5.106   0.312 -0.6026  0.3272 -0.7725
 7953WAT    EPW32520   0.864   5.172   0.282 -0.2683 -0.2016  0.1330
 7954WAT      O32521   4.728   6.426   4.848  0.2177  0.0912 -0.3437
 7954WAT     H132522   4.773   6.352   4.838 -1.1794 -0.8563  0.0999
 7954WAT     H232523   4.682   6.432   4.774 -0.2512  0.1010 -0.0550
 7954WAT    EPW32524   4.727   6.416   4.836 -0.4233  0.2102  0.0034
 7955WAT      O32525   0.083   3.722   5.444 -0.1655 -0.8243  0.4274
 7955WAT     H132526   0.103   3.731   5.528 -1.0325 -2.2484  0.8176
 7955WAT     H232527   0.048   3.800   5.423  2.7133  0.6210  0.5192
 7955WAT    EPW32528   0.081   3.735   5.453 -0.3607 -0.0399  0.0504
 7956WAT      O32529   3.820   1.443   2.670  0.2509 -0.3158  0.5754
 7956WAT     H132530   3.866   1.376   2.701  2.3279  0.2217 -1.0784
 7956WAT     H232531   3.767   1.405   2.611  2.3543 -0.5063 -1.3570
 7956WAT    EPW32532   3.819   1.427   2.666 -0.1078 -0.7241 -0.1794
 7957WAT      O32533   6.018   6.091   0.731  0.4043  0.1930  0.5368
 7957WAT     H132534   6.089   6.132   0.701  0.3755  0.9623  1.4808
 7957WAT     H232535   6.024   6.011   0.695  1.4672  0.4128  0.1862
 7957WAT    EPW32536   6.030   6.085   0.721 -0.2171  0.8429 -0.3770
 7958WAT      O32537   1.280   1.768   2.066  0.3799  0.3532  0.0135
 7958WAT     H132538   1.274   1.681   2.070  0.4585  0.3886  1.1440
 7958WAT     H232539   1.198   1.792   2.048 -0.1886  0.1318  2.0034
 7958WAT    EPW32540   1.267   1.758   2.064 -0.2302 -0.1512  0.0158
 7959WAT      O32541   2.078   2.084   1.307  0.1456 -0.0861  0.2088
 7959WAT     H132542   2.153   2.078   1.350 -0.2472  1.5454  1.1767
 7959WAT     H232543   2.096   2.138   1.241  0.4380 -1.6662 -1.0798
 7959WAT    EPW32544   2.092   2.091   1.303 -0.0589  0.6500  0.2537
 7960WAT      O32545   5.639   3.660   4.592  0.7163  0.2398  1.0509
 7960WAT     H132546   5.646   3.582   4.553  1.9248  0.0340  1.6247
 7960WAT     H232547   5.583   3.645   4.656 -0.6781  0.3849 -0.0877
 7960WAT    EPW32548   5.632   3.646   4.595  0.0760 -0.3736 -0.4084
 7961WAT      O32549   0.652   1.053   5.104  0.0423  0.0712  0.1528
 7961WAT     H132550   0.621   0.977   5.134 -2.0596  1.5871  2.1805
 7961WAT     H232551   0.719   1.070   5.157  1.9687 -1.2461 -1.6594
 7961WAT    EPW32552   0.658   1.044   5.116 -0.1492 -0.6887  0.2241
 7962WAT      O32553   5.732   5.003   7.544  0.6537 -0.4399 -0.1689
 7962WAT     H132554   5.794   4.994   7.483  1.9121 -1.0701  1.1365
 7962WAT     H232555   5.669   5.047   7.503  0.8598 -1.9894 -2.3293
 7962WAT    EPW32556   5.732   5.008   7.529 -0.0721  0.5371  0.1761
 7963WAT      O32557   1.806   5.177   1.306  0.1231 -0.1916  0.3421
 7963WAT     H132558   1.869   5.233   1.284  0.2729 -0.0266  1.1710
 7963WAT     H232559   1.833   5.144   1.382 -0.9599  0.1488  0.8884
 7963WAT    EPW32560   1.819   5.180   1.314 -1.0552 -0.6970  0.0460
 7964WAT      O32561   6.683   4.938   2.966  0.1825  0.2012  0.2938
 7964WAT     H132562   6.652   5.015   2.990  0.3177  0.3413  0.0211
 7964WAT     H232563   6.666   4.886   3.034  0.0411  0.4572  0.4508
 7964WAT    EPW32564   6.676   4.941   2.979  0.6156 -0.6560  0.0918
 7965WAT      O32565   0.736   5.541   2.798  0.4946  0.2061 -0.1593
 7965WAT     H132566   0.822   5.549   2.797  0.4578  0.9323  0.9964
 7965WAT     H232567   0.717   5.522   2.881 -0.4711  0.3349 -0.3303
 7965WAT    EPW32568   0.746   5.540   2.810  0.2375  0.1257  0.0629
 7966WAT      O32569   1.953   5.877   3.243 -0.0543  0.5783 -0.0354
 7966WAT     H132570   2.019   5.863   3.187  2.4494 -0.2162  2.8497
 7966WAT     H232571   1.904   5.806   3.235 -0.4889  1.0186 -1.9715
 7966WAT    EPW32572   1.955   5.865   3.234  0.7140 -0.7576 -0.1441
 7967WAT      O32573   4.109   2.393   1.946  0.1064  0.5808 -0.1549
 7967WAT     H132574   4.159   2.363   2.012  0.5132  0.3520 -0.5574
 7967WAT     H232575   4.082   2.470   1.975  0.2171  0.4473  0.3183
 7967WAT    EPW32576   4.113   2.400   1.960  0.2585 -0.3452 -0.3727
 7968WAT      O32577   0.457   3.425   6.028  0.0035  0.4067  0.0392
 7968WAT     H132578   0.381   3.423   6.070  0.3721 -2.1496  0.7686
 7968WAT     H232579   0.508   3.473   6.081 -0.5857  0.4852  0.5422
 7968WAT    EPW32580   0.453   3.432   6.042  0.7041 -0.1649  0.4626
 7969WAT      O32581   4.864   2.051   2.663  0.1156 -0.7956 -0.1243
 7969WAT     H132582   4.922   1.989   2.685  2.2064  1.1575  0.1830
 7969WAT     H232583   4.854   2.097   2.736 -1.3161 -0.6506 -0.3850
 7969WAT    EPW32584   4.871   2.048   2.677 -0.0490 -0.2927 -0.2706
 7970WAT      O32585   6.869   4.098   0.037  0.7615 -0.3286  0.1220
 7970WAT     H132586   6.928   4.043   0.069  1.2572  0.7684  1.1854
 7970WAT     H232587   6.867   4.163   0.096 -0.2124  0.5133 -0.7832
 7970WAT    EPW32588   6.877   4.100   0.050  0.5920  0.1186 -0.5244
 7971WAT      O32589   7.347   4.396   0.598  0.8802 -0.1254  0.3901
 7971WAT     H132590   7.360   4.310   0.590 -2.8177 -0.7529 -0.5080
 7971WAT     H232591   7.378   4.428   0.524 -0.4796 -1.1683 -0.6834
 7971WAT    EPW32592   7.354   4.388   0.586  0.3449  0.5212 -0.5104
 7972WAT      O32593   7.258   0.842   0.430  0.0231 -0.3708 -0.2376
 7972WAT     H132594   7.235   0.808   0.354  0.0762  2.2587 -1.5536
 7972WAT     H232595   7.248   0.776   0.487 -3.7804 -1.4137 -1.8421
 7972WAT    EPW32596   7.253   0.828   0.427 -0.4790 -0.4000  0.5992
 7973WAT      O32597   5.911   2.844   3.784 -0.1036 -0.2881 -0.2991
 7973WAT     H132598   5.853   2.834   3.849  0.2476  0.2962  0.1097
 7973WAT     H232599   5.985   2.812   3.817 -0.2068 -1.1703 -0.8765
 7973WAT    EPW32600   5.913   2.838   3.798  0.2386  0.1333  0.0445
 7974WAT      O32601   1.125   1.997   5.268  0.1321 -0.1010  0.3503
 7974WAT     H132602   1.188   1.975   5.211 -1.2500 -1.5248 -0.7189
 7974WAT     H232603   1.102   1.921   5.303 -0.6866  0.4655  1.0800
 7974WAT    EPW32604   1.131   1.983   5.265 -0.2757  0.0561  0.7920
 7975WAT      O32605   6.075   4.135   3.452 -0.0386  0.0598 -0.2707
 7975WAT     H132606   6.157   4.108   3.438  0.1898 -0.4835  1.8822
 7975WAT     H232607   6.032   4.061   3.467 -1.0199  0.3168 -1.6224
 7975WAT    EPW32608   6.081   4.120   3.452  0.0526  0.0644 -0.2317
 7976WAT      O32609   3.735   0.322   3.447  0.2140 -0.4495  0.1297
 7976WAT     H132610   3.695   0.342   3.373  2.2896  0.8292 -0.7322
 7976WAT     H232611   3.794   0.262   3.423 -0.4770 -1.5905  1.1702
 7976WAT    EPW32612   3.738   0.316   3.433  0.1140 -0.0602 -0.0977
 7977WAT      O32613   1.117   1.755   0.089  0.2371 -0.3116  0.3555
 7977WAT     H132614   1.191   1.721   0.119  0.8695 -0.3060 -1.1489
 7977WAT     H232615   1.067   1.685   0.074  0.0291 -0.3302  1.0980
 7977WAT    EPW32616   1.120   1.740   0.092  0.0107 -0.5176  0.3655
 7978WAT      O32617   1.675   0.380   1.372 -0.1030  0.0745  0.3722
 7978WAT     H132618   1.674   0.369   1.459 -2.0002 -0.3360  0.3488
 7978WAT     H232619   1.695   0.301   1.342 -0.9067 -0.1630  0.4329
 7978WAT    EPW32620   1.678   0.367   1.380 -0.5423  0.1437  0.1158
 7979WAT      O32621   2.138   2.848   1.388  0.8456 -0.2498  0.4012
 7979WAT     H132622   2.121   2.768   1.419  2.0609 -0.9350 -0.5956
 7979WAT     H232623   2.121   2.900   1.456 -0.5714 -1.2711  0.8789
 7979WAT    EPW32624   2.133   2.844   1.403  0.6802 -0.3469 -0.0454
 7980WAT      O32625   1.496   0.984   5.520  0.5986 -0.2321  0.7327
 7980WAT     H132626   1.576   1.016   5.535  0.5802 -0.7637  2.0946
 7980WAT     H232627   1.462   0.976   5.600 -1.4813  1.6367  0.1311
 7980WAT    EPW32628   1.503   0.988   5.534  0.1016 -0.0467  0.1491
 7981WAT      O32629   7.022   6.042   5.812 -0.2336  0.1328 -0.1141
 7981WAT     H132630   6.975   6.006   5.748 -1.9709  0.9764  0.6242
 7981WAT     H232631   7.019   6.127   5.795  2.7422  0.1779 -1.1171
 7981WAT    EPW32632   7.015   6.049   5.800  0.2217 -0.0496  0.0313
 7982WAT      O32633   6.597   4.100   4.336 -0.3483 -0.2825  0.5526
 7982WAT     H132634   6.514   4.095   4.313 -0.4480 -1.4857  1.0869
 7982WAT     H232635   6.596   4.150   4.408 -0.6153 -0.3316  0.5813
 7982WAT    EPW32636   6.585   4.107   4.343 -0.1549 -0.3374 -0.2489
 7983WAT      O32637   3.088   4.748   1.500  0.5068 -0.2335  0.2298
 7983WAT     H132638   3.173   4.750   1.481 -0.1008 -1.2658 -3.1965
 7983WAT     H232639   3.075   4.666   1.525  0.3658 -0.3137 -0.1063
 7983WAT    EPW32640   3.099   4.737   1.501  0.6175 -0.0407  0.5207
 7984WAT      O32641   3.496   5.949   4.715 -0.2573  0.5892  0.0354
 7984WAT     H132642   3.575   5.930   4.683 -1.2773 -2.0288 -1.2937
 7984WAT     H232643   3.492   5.902   4.789 -0.7113  0.3147 -0.1561
 7984WAT    EPW32644   3.507   5.939   4.722  0.6216  0.0460  0.1356
 7985WAT      O32645   7.077   6.233   3.984  0.3481  0.3653 -0.0302
 7985WAT     H132646   6.994   6.206   3.978  0.9176 -1.4807 -0.3260
 7985WAT     H232647   7.095   6.262   3.904 -0.7092  3.2309  0.6423
 7985WAT    EPW32648   7.067   6.233   3.971  0.1855 -0.3364 -0.0586
 7986WAT      O32649   3.682   4.207   1.027  0.4644 -0.0787  0.1556
 7986WAT     H132650   3.726   4.211   1.102 -1.2149 -0.9831  1.2450
 7986WAT     H232651   3.641   4.130   1.031 -0.5659  0.3567 -1.1609
 7986WAT    EPW32652   3.682   4.196   1.039 -0.4240 -0.3516 -0.6635
 7987WAT      O32653   6.609   3.302   0.445 -0.3540  0.2139  0.7149
 7987WAT     H132654   6.596   3.227   0.402  4.5217 -0.0856 -0.8574
 7987WAT     H232655   6.570   3.362   0.394 -0.3084 -0.8234 -0.5863
 7987WAT    EPW32656   6.601   3.300   0.431 -0.1335 -0.0267  0.4301
 7988WAT      O32657   5.403   1.127   2.723 -0.2504  0.1903  0.7033
 7988WAT     H132658   5.348   1.167   2.778  1.3577  2.5815  0.7200
 7988WAT     H232659   5.475   1.114   2.771 -0.1304 -1.2135  0.1892
 7988WAT    EPW32660   5.406   1.131   2.738 -0.6191  0.7875  0.3789
 7989WAT      O32661   5.247   4.704   5.159  0.1792  0.3891  0.4418
 7989WAT     H132662   5.305   4.724   5.097 -0.7432 -0.1970 -0.6390
 7989WAT     H232663   5.285   4.638   5.202  0.0616 -0.3968 -0.6394
 7989WAT    EPW32664   5.261   4.697   5.156  0.0742 -0.6945  0.2581
 7990WAT      O32665   0.753   6.925   4.353 -0.5640  0.1139  0.6174
 7990WAT     H132666   0.695   6.989   4.340  1.6574  2.7435  2.4746
 7990WAT     H232667   0.793   6.948   4.428  2.8550 -1.4492 -0.5150
 7990WAT    EPW32668   0.750   6.938   4.362  0.1434 -0.2129  0.3448
 7991WAT      O32669   2.711   2.336   2.795 -0.8491  0.0096 -0.6613
 7991WAT     H132670   2.631   2.350   2.763 -0.0004  2.0501 -2.0894
 7991WAT     H232671   2.740   2.416   2.813  0.4617 -0.7712  0.9699
 7991WAT    EPW32672   2.704   2.350   2.793 -0.4434  0.2109  0.0093
 7992WAT      O32673   5.965   2.287   0.509  0.2055 -0.3627  0.0806
 7992WAT     H132674   5.971   2.343   0.576  1.1389  0.2931 -0.5277
 7992WAT     H232675   6.023   2.225   0.529 -2.8217 -2.8125  2.2169
 7992WAT    EPW32676   5.974   2.286   0.522 -0.1061 -0.1701 -0.6739
 7993WAT      O32677   3.189   0.426   0.846  0.0569  0.1518  0.6420
 7993WAT     H132678   3.223   0.460   0.773 -0.3376  1.2840  0.9638
 7993WAT     H232679   3.137   0.363   0.817  0.2017  0.3333 -0.0313
 7993WAT    EPW32680   3.187   0.422   0.831  0.4742 -0.0360  0.5497
 7994WAT      O32681   5.398   4.305   3.606 -0.0517  0.0556 -0.9379
 7994WAT     H132682   5.386   4.389   3.587 -1.3338 -0.2353 -1.5066
 7994WAT     H232683   5.389   4.265   3.529  0.5616 -0.6156 -0.6805
 7994WAT    EPW32684   5.395   4.312   3.592 -1.1349 -0.2032  0.5712
 7995WAT      O32685   5.076   5.992   2.473 -0.2080 -0.1579 -0.1669
 7995WAT     H132686   5.159   6.007   2.491  0.2532 -0.3146 -1.9367
 7995WAT     H232687   5.066   5.907   2.488 -0.4828  0.1423  1.4921
 7995WAT    EPW32688   5.087   5.982   2.478  0.5444  0.0098 -0.4055
 7996WAT      O32689   2.835   4.020   1.801  0.0226  0.0424  0.1973
 7996WAT     H132690   2.897   4.070   1.835  0.4171 -1.2157  1.4646
 7996WAT     H232691   2.815   4.058   1.726  2.4920  0.3558 -0.3590
 7996WAT    EPW32692   2.841   4.033   1.795 -0.4548 -0.2599  0.5801
 7997WAT      O32693   4.434   5.187   5.743 -0.0043 -0.2679 -0.0267
 7997WAT     H132694   4.392   5.262   5.758 -0.4789 -0.1871 -1.5659
 7997WAT     H232695   4.423   5.142   5.817  0.3064  1.1700  0.9444
 7997WAT    EPW32696   4.426   5.191   5.756  0.3902  0.5510 -0.1757
 7998WAT      O32697   1.822   6.451   2.239 -0.0136 -0.4084 -0.3688
 7998WAT     H132698   1.843   6.398   2.173 -0.3272 -1.1580  0.1107
 7998WAT     H232699   1.835   6.401   2.309 -0.4985  0.0934  0.0889
 7998WAT    EPW32700   1.827   6.436   2.240  0.3835 -0.2982 -0.2012
 7999WAT      O32701   3.061   3.978   6.185 -0.0292 -0.2356  0.0073
 7999WAT     H132702   3.001   3.984   6.248  0.1012 -2.0042  0.3552
 7999WAT     H232703   3.135   3.965   6.228  0.1702 -0.7836 -0.4825
 7999WAT    EPW32704   3.063   3.977   6.201 -0.4953 -0.5161  0.1963
 8000WAT      O32705   0.993   5.560   2.762 -0.0513  0.1978 -0.0615
 8000WAT     H132706   1.057   5.606   2.725  0.3633 -0.7628 -0.5966
 8000WAT     H232707   1.033   5.520   2.829 -0.0254 -0.5648 -0.5204
 8000WAT    EPW32708   1.008   5.561   2.767 -0.6076  0.3045  0.6417
 8001WAT      O32709   7.078   1.799  -0.017 -0.1415 -0.1490  0.5853
 8001WAT     H132710   7.043   1.852   0.043  1.0885 -0.4291  1.6035
 8001WAT     H232711   7.092   1.725   0.027  0.9246 -0.3117 -0.0017
 8001WAT    EPW32712   7.075   1.796  -0.002 -0.3756 -0.3411  0.7619
 8002WAT      O32713   7.662   4.586   7.007 -0.1579  0.0265 -0.2108
 8002WAT     H132714   7.652   4.588   6.921  0.6540 -0.4379 -0.3254
 8002WAT     H232715   7.586   4.614   7.038 -0.2963  0.6306 -1.0842
 8002WAT    EPW32716   7.650   4.590   6.999  0.4038 -0.1688  0.1696
 8003WAT      O32717   3.552   7.424   4.184  0.2659  0.5364 -0.0579
 8003WAT     H132718   3.612   7.385   4.135  0.3392  0.4809  0.0779
 8003WAT     H232719   3.590   7.498   4.208 -0.4058  1.4133 -1.5508
 8003WAT    EPW32720   3.566   7.429   4.180  0.2639 -0.2349  0.1947
 8004WAT      O32721   1.668   1.288   2.063  0.5957  0.0114 -0.2761
 8004WAT     H132722   1.737   1.293   2.010  0.9626 -0.6836  0.1181
 8004WAT     H232723   1.641   1.370   2.069  1.7932  0.4038  0.0728
 8004WAT    EPW32724   1.674   1.301   2.056  0.1782  0.0801 -0.3202
 8005WAT      O32725   2.236   3.613   3.877  0.1152 -0.7994 -0.1594
 8005WAT     H132726   2.272   3.603   3.956  1.0566  0.1926 -0.4430
 8005WAT     H232727   2.304   3.620   3.823 -0.4946  0.0617 -0.8562
 8005WAT    EPW32728   2.251   3.613   3.881  0.2181 -0.4168  0.1204
 8006WAT      O32729   1.959   6.901   0.965  0.2655 -0.0091  0.1192
 8006WAT     H132730   2.032   6.947   0.976 -0.3184  1.4118 -1.5122
 8006WAT     H232731   1.935   6.881   1.046  1.3077  1.3730  0.8162
 8006WAT    EPW32732   1.966   6.905   0.979  0.7407 -0.1709 -0.1165
 8007WAT      O32733   3.353   4.060   0.647  0.3348 -0.4155  0.6111
 8007WAT     H132734   3.391   4.128   0.686  0.5061  0.0661 -0.3788
 8007WAT     H232735   3.296   4.096   0.592 -0.4664 -1.1034  0.9702
 8007WAT    EPW32736   3.350   4.075   0.645  0.1125  0.0768 -0.3309
 8008WAT      O32737   2.881   1.863   0.719 -0.0388 -0.5435  0.1426
 8008WAT     H132738   2.952   1.865   0.668  1.2743 -0.5585  1.8755
 8008WAT     H232739   2.878   1.943   0.754  0.0493 -1.0091  1.2587
 8008WAT    EPW32740   2.891   1.875   0.717  0.5418 -0.7499 -0.1829
 8009WAT      O32741   3.969   2.226   2.255 -0.0431  0.1884  0.4637
 8009WAT     H132742   4.024   2.247   2.191 -1.1005  0.2099 -0.4841
 8009WAT     H232743   4.012   2.164   2.299  0.7864  0.2895 -0.1661
 8009WAT    EPW32744   3.983   2.220   2.252 -0.1107 -0.2196  0.1077
 8010WAT      O32745   3.260   1.503   6.818  0.3812 -0.2753 -0.3966
 8010WAT     H132746   3.232   1.564   6.874 -1.8082 -0.5099 -1.1318
 8010WAT     H232747   3.329   1.541   6.780  1.0920  0.4015  1.4831
 8010WAT    EPW32748   3.266   1.518   6.820  0.3708  0.9180 -0.0621
 8011WAT      O32749   0.357   1.606   1.310  0.4903 -0.1118 -0.5389
 8011WAT     H132750   0.434   1.620   1.271 -0.2543  3.3429 -1.0569
 8011WAT     H232751   0.300   1.610   1.244 -0.3241 -0.5287  0.1224
 8011WAT    EPW32752   0.360   1.608   1.294  0.0380  0.9667  0.3919
 8012WAT      O32753   0.880   4.312   0.353 -0.2621  0.1420  0.0923
 8012WAT     H132754   0.887   4.320   0.267 -2.4224 -0.3630 -0.1928
 8012WAT     H232755   0.810   4.359   0.373  0.1996  0.2571  1.5857
 8012WAT    EPW32756   0.871   4.320   0.343 -0.1263  0.0694 -0.5854
 8013WAT      O32757   3.639   3.564   7.524  0.2880 -0.2835 -0.3369
 8013WAT     H132758   3.590   3.636   7.517  0.0276 -0.3047  1.0771
 8013WAT     H232759   3.683   3.562   7.449 -1.4756  0.0286 -1.4367
 8013WAT    EPW32760   3.638   3.574   7.512  0.1164  0.0046  0.1554
 8014WAT      O32761   0.449   2.545   1.766  0.4878 -0.4089  0.7164
 8014WAT     H132762   0.460   2.471   1.811 -2.0890 -1.6438 -0.4947
 8014WAT     H232763   0.391   2.589   1.814 -0.5986 -0.7590 -0.2350
 8014WAT    EPW32764   0.442   2.540   1.780 -0.2414  0.2308 -0.1712
 8015WAT      O32765   5.674   3.740   3.761  0.0783  0.1598  0.5409
 8015WAT     H132766   5.596   3.775   3.778 -0.8986 -2.4396  2.0062
 8015WAT     H232767   5.714   3.740   3.839  0.0737 -1.7694  0.5920
 8015WAT    EPW32768   5.669   3.745   3.775  0.1801  0.0948 -0.2870
 8016WAT      O32769   3.256   6.671   3.942 -0.0479  0.6266  0.5795
 8016WAT     H132770   3.230   6.588   3.950  0.1613  0.4673 -0.3457
 8016WAT     H232771   3.300   6.686   4.016 -0.4767  0.0644  0.9580
 8016WAT    EPW32772   3.259   6.661   3.954  0.2918 -0.1963 -0.4094
 8017WAT      O32773   7.098   2.979   5.536  0.8441 -0.2373 -0.1560
 8017WAT     H132774   7.058   3.053   5.559  0.2197 -0.3079 -0.9718
 8017WAT     H232775   7.181   2.993   5.556  0.6355  0.4571  0.2481
 8017WAT    EPW32776   7.104   2.992   5.542 -0.4345  0.2000  0.7062
 8018WAT      O32777   2.703   5.005   0.322 -0.0577  0.0780  0.1816
 8018WAT     H132778   2.728   5.086   0.300  0.0749 -0.3441 -1.4081
 8018WAT     H232779   2.779   4.965   0.340 -0.0953  0.2332  0.6790
 8018WAT    EPW32780   2.718   5.011   0.321 -0.3638  0.3355  0.6405
 8019WAT      O32781   5.814   0.500   4.004 -0.3085  0.5754  0.4823
 8019WAT     H132782   5.867   0.432   4.018  1.1116  1.5446 -0.0429
 8019WAT     H232783   5.734   0.465   4.013  0.3762 -0.6533  2.5314
 8019WAT    EPW32784   5.810   0.485   4.007 -0.6053 -0.0595  0.4849
 8020WAT      O32785   0.859   4.568   2.386  0.5098 -0.3014  0.1105
 8020WAT     H132786   0.817   4.560   2.463  0.3988 -0.0463  0.0746
 8020WAT     H232787   0.940   4.591   2.410  0.1214  1.1512  0.0958
 8020WAT    EPW32788   0.865   4.570   2.401  0.1133  0.4998  0.4548
 8021WAT      O32789   2.983   1.775   3.222  0.1591 -0.1090 -0.3656
 8021WAT     H132790   2.995   1.774   3.309  0.5640 -0.4518 -0.4202
 8021WAT     H232791   2.933   1.845   3.209  0.9721  0.5722  0.0477
 8021WAT    EPW32792   2.978   1.785   3.233 -0.4615  0.2751  0.1965
 8022WAT      O32793   7.615   1.503   0.807 -0.0786  0.0013  0.2106
 8022WAT     H132794   7.567   1.500   0.735 -1.0969 -0.0918  0.8680
 8022WAT     H232795   7.627   1.420   0.828 -0.4804  0.0327  0.5834
 8022WAT    EPW32796   7.610   1.491   0.800  0.4914 -0.3735 -0.7186
 8023WAT      O32797   2.738   0.958   5.643 -0.0370 -0.4158  0.0804
 8023WAT     H132798   2.765   1.035   5.612 -0.0412 -0.6593 -0.5475
 8023WAT     H232799   2.672   0.980   5.696 -0.1260  0.0073 -0.1936
 8023WAT    EPW32800   2.732   0.973   5.646  0.5313 -0.4674 -0.0137
 8024WAT      O32801   0.538   7.294   6.016  0.0274 -0.7088 -0.1720
 8024WAT     H132802   0.538   7.317   6.100  1.0853 -0.7791 -0.1484
 8024WAT     H232803   0.512   7.211   6.017 -1.4799 -0.2789 -0.0658
 8024WAT    EPW32804   0.534   7.285   6.029  0.1744  0.3512  0.1863
 8025WAT      O32805   5.129   7.399   4.392  0.1073  0.7573 -0.1018
 8025WAT     H132806   5.160   7.425   4.315  0.1139  1.9925  0.3018
 8025WAT     H232807   5.057   7.354   4.371 -0.6910  2.2691 -0.7937
 8025WAT    EPW32808   5.123   7.396   4.378  0.3341 -0.7236  0.4700
 8026WAT      O32809   5.301   5.651   5.542 -0.1389 -0.9089  0.1848
 8026WAT     H132810   5.334   5.601   5.605 -1.3419 -1.3450  0.4888
 8026WAT     H232811   5.215   5.637   5.547 -0.1844 -2.9325 -3.1473
 8026WAT    EPW32812   5.294   5.641   5.552 -0.5002 -0.0168 -0.3902
 8027WAT      O32813   2.630   7.341   3.319  0.6141 -0.5106 -0.3485
 8027WAT     H132814   2.609   7.256   3.325  0.4208 -0.4920 -0.7534
 8027WAT     H232815   2.709   7.339   3.280  0.9116 -0.5313  0.2384
 8027WAT    EPW32816   2.639   7.328   3.314 -0.6067  0.1542 -0.2125
 8028WAT      O32817   3.939   2.876   6.456 -0.4430  0.0414  0.0022
 8028WAT     H132818   4.017   2.904   6.429 -0.5478  0.7095  0.3650
 8028WAT     H232819   3.884   2.940   6.431 -1.2217 -1.3352 -2.0973
 8028WAT    EPW32820   3.942   2.890   6.448  0.4513  0.0152  0.3836
 8029WAT      O32821   2.814   4.902   3.790 -0.6149  0.2212 -0.4512
 8029WAT     H132822   2.863   4.971   3.806  1.7783 -0.8604 -2.4230
 8029WAT     H232823   2.803   4.865   3.868  2.4722  0.1055  0.0232
 8029WAT    EPW32824   2.819   4.906   3.804 -0.6213  0.3082 -0.5859
 8030WAT      O32825   1.948   7.242   2.405 -0.0682 -0.3358 -0.0954
 8030WAT     H132826   1.917   7.323   2.414  0.8325  0.2325 -1.6964
 8030WAT     H232827   1.910   7.213   2.332  1.6102 -0.3464 -1.0153
 8030WAT    EPW32828   1.938   7.249   2.396  0.6191  0.0183 -0.7970
 8031WAT      O32829   4.432   2.369   1.226 -0.3148  0.2620 -0.2660
 8031WAT     H132830   4.465   2.377   1.306  1.4315  0.1843 -0.9122
 8031WAT     H232831   4.346   2.362   1.239 -0.2069  1.4990  1.4987
 8031WAT    EPW32832   4.424   2.370   1.240  0.1629 -0.4796  0.5121
 8032WAT      O32833   4.751   4.598   3.385 -0.3527 -0.4003  0.1562
 8032WAT     H132834   4.804   4.544   3.343 -0.8228  0.0259 -1.0230
 8032WAT     H232835   4.803   4.665   3.407 -0.2016 -0.4100 -0.1660
 8032WAT    EPW32836   4.766   4.600   3.382  0.0418  0.1663 -0.1443
 8033WAT      O32837   6.023   0.286   0.734  0.0805 -0.4513 -0.3654
 8033WAT     H132838   6.059   0.210   0.756  1.1226  0.1441  0.0730
 8033WAT     H232839   6.081   0.345   0.762 -1.3454  0.5780  0.5923
 8033WAT    EPW32840   6.037   0.284   0.741  0.8496 -0.2216 -0.1233
 8034WAT      O32841   5.953   5.173   4.164 -0.0325 -0.5184  0.4800
 8034WAT     H132842   6.027   5.146   4.128  0.1153 -0.6702  0.8942
 8034WAT     H232843   5.910   5.099   4.181 -0.8680 -0.4057 -0.9617
 8034WAT    EPW32844   5.957   5.158   4.161  0.0244  0.9414  0.3368
 8035WAT      O32845   1.416   3.172   6.357  0.5762 -0.0924  0.5600
 8035WAT     H132846   1.442   3.256   6.356  0.4180 -0.0456  0.3842
 8035WAT     H232847   1.355   3.170   6.419 -0.3279  0.1946 -0.3033
 8035WAT    EPW32848   1.411   3.184   6.366  0.0636 -0.2171 -0.1229
 8036WAT      O32849   0.102   6.562   0.322 -0.2149 -0.8164 -0.1269
 8036WAT     H132850   0.110   6.595   0.242  2.1707 -0.3258  0.2130
 8036WAT     H232851   0.084   6.631   0.372  2.1355 -0.3540  0.2138
 8036WAT    EPW32852   0.101   6.577   0.317 -0.5405  0.7087 -0.0837
 8037WAT      O32853   3.038   1.614   3.004 -0.0579 -0.1005 -0.0348
 8037WAT     H132854   2.992   1.682   3.036 -0.1048 -0.1901  0.0906
 8037WAT     H232855   2.981   1.548   3.009  0.4743 -0.5020  1.3123
 8037WAT    EPW32856   3.023   1.615   3.010  0.4109 -0.2673 -0.0937
 8038WAT      O32857   6.425   3.272   1.781  0.3817 -0.0202 -0.0736
 8038WAT     H132858   6.352   3.226   1.769 -0.9954  1.2374  2.5630
 8038WAT     H232859   6.473   3.222   1.834 -0.5582  0.8846  1.7407
 8038WAT    EPW32860   6.422   3.258   1.787 -0.0133 -0.5086 -0.1745
 8039WAT      O32861   2.273   1.112   6.170  0.2238  0.7332 -0.3331
 8039WAT     H132862   2.208   1.124   6.113 -0.5815 -0.2727  0.3306
 8039WAT     H232863   2.259   1.173   6.231 -0.0281  0.5962 -0.2537
 8039WAT    EPW32864   2.261   1.123   6.171  0.4727 -0.2476  0.1294
 8040WAT      O32865   3.106   0.745   7.474 -0.4370  0.3642  0.1348
 8040WAT     H132866   3.065   0.702   7.410  0.0562  0.0268  0.0462
 8040WAT     H232867   3.184   0.764   7.439  0.4448 -1.1971  1.1673
 8040WAT    EPW32868   3.111   0.742   7.459 -0.6726 -0.1658  0.0457
 8041WAT      O32869   2.811   2.125   2.435  0.1565  0.3912 -0.0887
 8041WAT     H132870   2.833   2.098   2.355 -0.1560 -1.0477  0.2740
 8041WAT     H232871   2.733   2.088   2.448  0.9657 -0.8897  1.5328
 8041WAT    EPW32872   2.803   2.116   2.425  0.1986 -0.3463  0.3878
 8042WAT      O32873   4.033   1.894   1.453  0.1709 -0.0273  0.5124
 8042WAT     H132874   3.956   1.880   1.415 -0.2803  1.7516  0.7019
 8042WAT     H232875   4.084   1.920   1.387  0.7539 -1.5452  0.3187
 8042WAT    EPW32876   4.029   1.896   1.437 -0.0497  0.5215 -0.4250
 8043WAT      O32877   0.376   7.065   2.460  0.5225 -0.3477 -0.4942
 8043WAT     H132878   0.445   7.033   2.503  0.8344 -0.6237 -1.1767
 8043WAT     H232879   0.323   7.093   2.523  0.2385 -2.1975  0.1540
 8043WAT    EPW32880   0.378   7.064   2.476  0.1007 -0.2551  0.0154
 8044WAT      O32881   2.503   5.011   1.366  0.4638 -0.2647 -0.0646
 8044WAT     H132882   2.572   4.971   1.401  0.6223  1.1373  1.2833
 8044WAT     H232883   2.437   4.956   1.383  0.5495  0.2893  2.4220
 8044WAT    EPW32884   2.504   4.997   1.373  0.0550  0.2534  0.0171
 8045WAT      O32885   6.703   2.114   1.782 -0.1941  0.0315  0.3843
 8045WAT     H132886   6.775   2.115   1.833 -1.2326 -0.4715  1.9451
 8045WAT     H232887   6.709   2.039   1.739  0.4455  0.2135  0.1395
 8045WAT    EPW32888   6.715   2.103   1.783  0.4272 -0.3390  1.3646
 8046WAT      O32889   3.494   2.842   6.731 -0.2918 -0.2151  0.2712
 8046WAT     H132890   3.542   2.800   6.791 -0.1471 -0.1084  0.2302
 8046WAT     H232891   3.507   2.926   6.750  1.0098 -0.1336 -0.8784
 8046WAT    EPW32892   3.503   2.848   6.743  0.0121  0.6249 -0.2721
 8047WAT      O32893   5.729   1.381   0.920  0.4862 -0.5822 -0.3165
 8047WAT     H132894   5.791   1.421   0.873  0.0784 -1.7713 -1.9251
 8047WAT     H232895   5.772   1.356   0.992  1.0431  1.5432  0.1788
 8047WAT    EPW32896   5.745   1.383   0.924 -0.1406 -0.1359  0.2156
 8048WAT      O32897   4.581   1.238   2.021  0.1079 -0.8059 -0.7050
 8048WAT     H132898   4.542   1.160   2.014 -1.4669 -0.0806 -0.4623
 8048WAT     H232899   4.565   1.276   1.944 -1.2372  0.1667  0.0108
 8048WAT    EPW32900   4.573   1.232   2.008  0.2964 -0.6663 -0.4250
 8049WAT      O32901   5.517   2.134   6.402  0.6975 -0.6224  0.2845
 8049WAT     H132902   5.467   2.112   6.470  0.2948 -0.7971 -0.0656
 8049WAT     H232903   5.595   2.103   6.424  0.6750 -0.2786  0.8716
 8049WAT    EPW32904   5.521   2.126   6.416 -0.2567  0.4102 -0.2578
 8050WAT      O32905   2.615   7.074   3.641 -0.0384 -0.0939  0.1700
 8050WAT     H132906   2.532   7.058   3.661 -0.5486  0.7556 -1.1393
 8050WAT     H232907   2.657   7.003   3.670 -1.6283 -1.9468 -1.6933
 8050WAT    EPW32908   2.609   7.061   3.648  0.4664  0.4512  0.2469
 8051WAT      O32909   6.742   1.193   1.898  0.2007 -0.2746 -0.1465
 8051WAT     H132910   6.707   1.225   1.825 -0.6256  0.6372  0.6197
 8051WAT     H232911   6.796   1.256   1.925 -1.5407  0.6333  1.4471
 8051WAT    EPW32912   6.745   1.207   1.892 -0.6744  0.4080 -0.1499
 8052WAT      O32913   5.512   2.238   5.398 -0.4980  0.1630  0.1546
 8052WAT     H132914   5.497   2.194   5.324  2.1110 -0.7965  0.1086
 8052WAT     H232915   5.433   2.267   5.421 -1.5534 -0.4094 -2.4232
 8052WAT    EPW32916   5.498   2.236   5.390  0.1819 -0.8498  0.2253
 8053WAT      O32917   6.778   4.043   1.327 -0.4905 -0.1289 -0.4667
 8053WAT     H132918   6.856   4.010   1.347  0.3763  1.5201 -0.9043
 8053WAT     H232919   6.732   4.034   1.400  1.0778  1.5071  0.8016
 8053WAT    EPW32920   6.783   4.037   1.341  0.1432  0.2102 -0.1135
 8054WAT      O32921   3.522   1.591   0.064 -0.1273  0.1217 -0.4218
 8054WAT     H132922   3.569   1.543   0.008 -1.0043 -0.9653 -0.2712
 8054WAT     H232923   3.440   1.568   0.045 -0.5131  0.8811  0.3057
 8054WAT    EPW32924   3.517   1.580   0.053  0.5070  0.0216 -0.6457
 8055WAT      O32925   0.594   0.691   1.753 -0.4304  0.1591 -0.1008
 8055WAT     H132926   0.577   0.615   1.793 -0.2331  0.2731  0.2062
 8055WAT     H232927   0.538   0.693   1.687  0.3956 -0.8234 -0.8574
 8055WAT    EPW32928   0.583   0.680   1.749 -0.4687 -0.3649 -0.5307
 8056WAT      O32929   4.197   5.718   0.403  0.1518 -0.1332 -0.2547
 8056WAT     H132930   4.241   5.748   0.472  0.5452 -1.9567  0.3197
 8056WAT     H232931   4.115   5.712   0.432  0.2250 -0.4269 -0.1137
 8056WAT    EPW32932   4.191   5.722   0.417  0.2509 -0.2385 -0.8542
 8057WAT      O32933   2.493   3.748   6.317 -0.2302 -0.1744  0.1716
 8057WAT     H132934   2.469   3.665   6.328  0.5998 -0.6284 -1.1242
 8057WAT     H232935   2.451   3.772   6.245  0.4718  0.1120 -0.1563
 8057WAT    EPW32936   2.483   3.739   6.308  0.2081 -0.4972 -0.6697
 8058WAT      O32937   3.919   6.940   2.565 -0.2170 -0.0597  0.3057
 8058WAT     H132938   3.979   6.887   2.599  1.1882  1.1304 -0.2190
 8058WAT     H232939   3.950   7.020   2.581 -1.2795  0.5845 -0.6674
 8058WAT    EPW32940   3.932   6.944   2.572 -0.0841  0.3917 -0.1266
 8059WAT      O32941   5.711   3.520   1.724 -0.0818 -0.1159  0.4499
 8059WAT     H132942   5.683   3.592   1.685 -0.1781 -0.5817 -0.3764
 8059WAT     H232943   5.793   3.513   1.696 -0.0062 -0.2102  0.6972
 8059WAT    EPW32944   5.719   3.529   1.714 -0.0228  0.2915  0.2938
 8060WAT      O32945   3.432   1.341   4.114 -0.5914 -0.2837  0.4306
 8060WAT     H132946   3.380   1.410   4.103  1.6437  1.3580 -0.6877
 8060WAT     H232947   3.491   1.369   4.172  1.6463 -0.3356 -1.6470
 8060WAT    EPW32948   3.433   1.355   4.121 -0.2942  0.1231  0.4428
 8061WAT      O32949   2.107   3.818   7.438  0.0513  0.1260  0.6735
 8061WAT     H132950   2.195   3.818   7.437  0.0971  0.3939 -1.3539
 8061WAT     H232951   2.087   3.733   7.434  0.2276  0.0748  0.8725
 8061WAT    EPW32952   2.117   3.805   7.437 -0.1035  0.6115  0.7568
 8062WAT      O32953   4.802   6.637   5.559 -0.1979 -0.2588  0.4669
 8062WAT     H132954   4.731   6.593   5.535 -0.7138  0.4630  0.6465
 8062WAT     H232955   4.850   6.639   5.486  0.0789 -1.5462  0.5835
 8062WAT    EPW32956   4.799   6.631   5.545  0.0841 -0.0921  0.9619
 8063WAT      O32957   6.702   1.873   1.629  0.1686  0.2459  0.0637
 8063WAT     H132958   6.782   1.860   1.596  0.5758 -1.7722  1.6889
 8063WAT     H232959   6.658   1.908   1.561  1.2599 -2.5914 -2.3507
 8063WAT    EPW32960   6.707   1.877   1.614 -0.4266 -0.2383 -0.4117
 8064WAT      O32961   7.106   1.178   0.291  0.1095 -0.6482  0.0778
 8064WAT     H132962   7.180   1.170   0.245  0.2068  0.9131 -0.1009
 8064WAT     H232963   7.126   1.145   0.369  1.0731 -0.0347  0.0996
 8064WAT    EPW32964   7.120   1.172   0.296 -0.5631 -0.1236  0.2320
 8065WAT      O32965   0.635   6.473   2.762  0.0474  0.6303 -0.0982
 8065WAT     H132966   0.624   6.514   2.838  0.3118 -1.1038  0.9328
 8065WAT     H232967   0.579   6.514   2.708  0.4546  2.4296  0.7803
 8065WAT    EPW32968   0.625   6.485   2.765  0.8259  0.3549  0.6333
 8066WAT      O32969   0.214   1.558   7.477 -0.4504  0.1455 -0.7980
 8066WAT     H132970   0.241   1.637   7.503 -0.2560 -0.4779  0.9946
 8066WAT     H232971   0.161   1.531   7.540 -0.6658 -1.0949 -1.4598
 8066WAT    EPW32972   0.210   1.566   7.490 -0.5621  0.0995  0.1654
 8067WAT      O32973   0.958   1.972   1.829 -0.2445 -0.3981  0.4081
 8067WAT     H132974   0.914   1.925   1.770  1.2491 -0.9967 -0.2845
 8067WAT     H232975   0.964   2.051   1.792  1.2503 -0.9423 -0.5967
 8067WAT    EPW32976   0.952   1.977   1.815  0.1068 -0.2653 -0.1067
 8068WAT      O32977   6.479   4.765   3.450 -0.1328  0.0321  0.3915
 8068WAT     H132978   6.484   4.683   3.480 -1.4769 -0.8662 -1.6035
 8068WAT     H232979   6.560   4.795   3.459  0.8722 -2.1739 -0.4788
 8068WAT    EPW32980   6.492   4.757   3.456 -0.6098  0.6215 -0.3595
 8069WAT      O32981   5.432   0.220   3.273 -0.3896  0.5452  0.1696
 8069WAT     H132982   5.445   0.188   3.354 -0.8873  0.9545  0.4179
 8069WAT     H232983   5.475   0.164   3.222 -1.4737 -0.6903  0.5631
 8069WAT    EPW32984   5.440   0.207   3.278 -0.2585 -0.1550  0.3399
 8070WAT      O32985   1.960   4.233   2.004 -0.2568 -0.0271 -0.3217
 8070WAT     H132986   2.023   4.185   2.040 -0.1344 -0.2568 -0.8452
 8070WAT     H232987   2.004   4.297   1.964 -0.4551  1.7087  1.9917
 8070WAT    EPW32988   1.976   4.236   2.004  0.2182  0.2252 -0.1584
 8071WAT      O32989   0.283   0.155   7.058 -0.7228  0.0750  0.7796
 8071WAT     H132990   0.323   0.231   7.076 -0.8067  0.8694 -1.8499
 8071WAT     H232991   0.244   0.133   7.132  1.6818  1.0839  2.4796
 8071WAT    EPW32992   0.283   0.163   7.071  0.7060  0.5177  0.6372
 8072WAT      O32993   4.245   2.914   2.012  0.4355  0.0812 -0.1348
 8072WAT     H132994   4.229   2.979   1.956  1.0693 -0.5990 -1.1380
 8072WAT     H232995   4.194   2.932   2.080 -0.5878  0.7653 -1.0595
 8072WAT    EPW32996   4.235   2.926   2.013 -0.6637 -0.0502  0.0865
 8073WAT      O32997   3.663   1.853   0.703  0.0497  0.3643 -0.1751
 8073WAT     H132998   3.697   1.820   0.777 -1.1049  0.0102  0.2288
 8073WAT     H232999   3.603   1.909   0.732 -0.1616  0.4967 -0.8519
 8073WAT    EPW33000   3.659   1.856   0.719 -0.1953 -0.2925 -0.0460
 8074WAT      O33001   0.522   0.969   7.454 -0.0344  0.4203  0.6158
 8074WAT     H133002   0.540   0.922   7.525 -0.0749  2.2807  1.9106
 8074WAT     H233003   0.585   1.029   7.453  2.3574 -1.6912 -3.1263
 8074WAT    EPW33004   0.534   0.971   7.464  0.3684 -0.1258  0.1979
 8075WAT      O33005   7.630   0.060   3.989 -0.3111 -0.0685  0.5529
 8075WAT     H133006   7.588  -0.004   4.030 -0.1919 -0.5407 -0.0403
 8075WAT     H233007   7.600   0.054   3.907  0.7928 -0.3184  0.1513
 8075WAT    EPW33008   7.619   0.050   3.983  0.2144  0.3254  0.9131
 8076WAT      O33009   7.542   1.895   6.105 -0.1967  0.2485 -0.2626
 8076WAT     H133010   7.596   1.964   6.107 -0.0154  0.2448 -2.4128
 8076WAT     H233011   7.592   1.830   6.134  0.6277  0.4744 -1.1039
 8076WAT    EPW33012   7.557   1.896   6.109  0.1346  0.1845  0.1144
 8077WAT      O33013   6.385   4.340   5.900  0.5728 -0.3252 -0.0159
 8077WAT     H133014   6.382   4.359   5.985  1.4590 -0.7774  0.1264
 8077WAT     H233015   6.432   4.406   5.867  0.7272 -0.4539 -0.0571
 8077WAT    EPW33016   6.391   4.353   5.908 -0.2255 -0.1201 -0.1284
 8078WAT      O33017   5.917   2.467   1.818 -0.0764  0.3975 -0.0680
 8078WAT     H133018   5.870   2.508   1.879 -0.0233 -0.8252  0.8279
 8078WAT     H233019   5.866   2.469   1.747 -0.8286  0.3998  0.4696
 8078WAT    EPW33020   5.903   2.473   1.816  0.0146  0.0331  0.2477
 8079WAT      O33021   3.494   2.005   1.989 -0.0400  0.3380  0.2989
 8079WAT     H133022   3.484   2.035   2.070  0.0132 -0.1555  0.4910
 8079WAT     H233023   3.542   1.933   2.000  1.8382  1.3975 -0.3553
 8079WAT    EPW33024   3.500   1.999   2.003 -0.0603  0.1773 -0.2714
 8080WAT      O33025   4.540   6.200   2.938 -0.3411 -0.0431 -0.5245
 8080WAT     H133026   4.478   6.151   2.901  0.3294 -1.7204  0.4522
 8080WAT     H233027   4.594   6.218   2.872 -0.5121 -0.7940 -0.8830
 8080WAT    EPW33028   4.539   6.195   2.923  0.1421  0.5141  0.2682
 8081WAT      O33029   6.707   7.496   3.252 -0.2242 -0.2903 -0.0561
 8081WAT     H133030   6.760   7.565   3.254 -0.3341 -0.2142  0.2222
 8081WAT     H233031   6.629   7.531   3.236 -0.5647 -0.1793  1.7108
 8081WAT    EPW33032   6.703   7.511   3.250 -0.2700  0.0849  0.0749
 8082WAT      O33033   0.838   1.793   0.395 -0.3990  0.4595 -0.0100
 8082WAT     H133034   0.905   1.757   0.439 -0.4061  1.1172  0.5476
 8082WAT     H233035   0.877   1.852   0.344 -0.5074  0.5094 -0.0340
 8082WAT    EPW33036   0.854   1.796   0.394 -0.1372  0.0479  0.1105
 8083WAT      O33037   7.355   2.362   5.880  0.3104 -0.1291  0.2595
 8083WAT     H133038   7.418   2.387   5.935  2.6541 -1.9311 -1.3877
 8083WAT     H233039   7.335   2.281   5.907 -0.8355  0.1519  0.3164
 8083WAT    EPW33040   7.361   2.354   5.892  0.5150 -0.4155  1.0543
 8084WAT      O33041   0.001   7.289   4.759  0.2567 -0.1997  0.8019
 8084WAT     H133042   0.064   7.344   4.735  0.0825 -0.4519 -0.2623
 8084WAT     H233043   0.044   7.216   4.779  0.3072 -0.3847  0.0358
 8084WAT    EPW33044   0.016   7.287   4.759 -0.4561  0.3084 -0.1715
 8085WAT      O33045   1.180   2.624   0.245  0.0762 -0.4037 -0.0036
 8085WAT     H133046   1.155   2.582   0.317 -0.0882  0.1560  0.2694
 8085WAT     H233047   1.243   2.677   0.274  0.2209 -0.3957 -0.3299
 8085WAT    EPW33048   1.186   2.626   0.260 -0.7571 -0.1637  0.2872
 8086WAT      O33049   2.737   6.750   4.581  0.4394  0.0458 -0.1297
 8086WAT     H133050   2.729   6.770   4.666 -0.2580  2.9430 -0.7581
 8086WAT     H233051   2.823   6.752   4.568  0.4807  1.6984  0.1472
 8086WAT    EPW33052   2.748   6.753   4.592  0.2722 -0.5243  0.4947
 8087WAT      O33053   3.976   5.537   0.453  0.2835 -0.0646  0.6722
 8087WAT     H133054   3.967   5.543   0.539 -0.3352 -0.4936  0.6412
 8087WAT     H233055   3.894   5.545   0.423  0.2725 -1.6064  0.2309
 8087WAT    EPW33056   3.962   5.539   0.461 -0.7150 -0.9710  0.4514
 8088WAT      O33057   1.500   1.724   3.654 -0.4658  0.2208  0.2522
 8088WAT     H133058   1.526   1.669   3.591  1.7933  1.0609  0.3684
 8088WAT     H233059   1.568   1.728   3.708 -2.2800 -0.3686  2.7554
 8088WAT    EPW33060   1.514   1.717   3.653 -0.2612  0.3395 -0.1030
 8089WAT      O33061   4.521   3.442   6.646 -0.3269  0.0154 -0.3657
 8089WAT     H133062   4.497   3.522   6.619 -1.4022  0.4031  1.5672
 8089WAT     H233063   4.532   3.398   6.571 -0.0358  1.8515 -1.4844
 8089WAT    EPW33064   4.519   3.447   6.631  0.3108  0.2208  0.1293
 8090WAT      O33065   1.052   2.009   0.579  0.0410  0.0819 -0.4988
 8090WAT     H133066   1.088   1.949   0.527  0.1746  0.9803 -1.4710
 8090WAT     H233067   1.075   1.983   0.659 -0.0236 -1.2306 -0.8780
 8090WAT    EPW33068   1.061   1.996   0.583 -0.3151  0.3000  0.1856
 8091WAT      O33069   5.422   6.269   1.002  0.4040  0.3563 -0.1136
 8091WAT     H133070   5.475   6.254   1.069  0.8899  0.9588 -0.3521
 8091WAT     H233071   5.377   6.195   0.994  3.2011 -1.3252 -1.6985
 8091WAT    EPW33072   5.423   6.256   1.010  0.2156 -0.6004  0.0414
 8092WAT      O33073   5.977   3.355   4.565  0.3659  0.3812  0.1793
 8092WAT     H133074   5.896   3.339   4.593  0.1529 -1.0471 -1.1245
 8092WAT     H233075   6.024   3.359   4.638 -0.9329  1.7964  1.0019
 8092WAT    EPW33076   5.972   3.353   4.580 -0.1487  0.2785  0.7154
 8093WAT      O33077   2.925   7.023   4.825  0.6247 -0.0315 -0.1980
 8093WAT     H133078   2.934   7.058   4.904 -0.2088 -1.8944  0.7677
 8093WAT     H233079   2.962   7.082   4.772 -0.9753  2.4640  1.2744
 8093WAT    EPW33080   2.932   7.037   4.829 -1.1198 -0.3475 -0.4465
 8094WAT      O33081   0.774   2.792   2.400  0.0144 -0.0617 -0.9490
 8094WAT     H133082   0.800   2.806   2.318 -0.3370  0.3068 -1.0023
 8094WAT     H233083   0.766   2.706   2.404  2.5741 -0.3639 -0.5167
 8094WAT    EPW33084   0.777   2.782   2.388  0.2537 -0.4277  0.6475
 8095WAT      O33085   4.253   1.811   0.099  0.6447 -0.1559  0.1713
 8095WAT     H133086   4.235   1.879   0.151 -0.4932 -0.4396  0.1753
 8095WAT     H233087   4.175   1.774   0.086  1.2012 -1.2665 -0.1068
 8095WAT    EPW33088   4.238   1.816   0.105 -0.3930 -0.2947 -0.5784
 8096WAT      O33089   1.701   6.296   6.264 -0.3430 -0.1049  0.1461
 8096WAT     H133090   1.772   6.342   6.242 -0.3055  0.5476  1.5703
 8096WAT     H233091   1.713   6.279   6.348 -1.0670 -1.5034 -0.0069
 8096WAT    EPW33092   1.714   6.301   6.273 -0.0857 -0.3740  0.3079
 8097WAT      O33093   7.448   1.112   7.286  0.2075 -0.1332 -0.2543
 8097WAT     H133094   7.362   1.101   7.270  0.4244 -2.2615 -0.3144
 8097WAT     H233095   7.476   1.030   7.299  2.1611  0.5685  0.1962
 8097WAT    EPW33096   7.439   1.098   7.285  0.0527  0.5231 -0.7423
 8098WAT      O33097   4.151   1.610   2.468  0.2398 -0.0100  0.0742
 8098WAT     H133098   4.067   1.625   2.449 -0.4468  0.6852  3.0699
 8098WAT     H233099   4.154   1.523   2.479 -0.1780 -0.0128  0.1902
 8098WAT    EPW33100   4.139   1.599   2.467  0.3534 -0.2513 -0.0017
 8099WAT      O33101   3.753   7.504   6.260  0.0423 -0.9723 -0.0095
 8099WAT     H133102   3.792   7.504   6.182 -1.2886 -0.9261 -0.6996
 8099WAT     H233103   3.687   7.561   6.251  0.9894  0.5389  1.7605
 8099WAT    EPW33104   3.749   7.513   6.247  0.6069  0.2845 -0.0247
 8100WAT      O33105   6.018   0.528   5.660 -0.1226 -0.2246  0.0201
 8100WAT     H133106   5.943   0.518   5.617 -0.2094  2.8278 -0.7664
 8100WAT     H233107   6.006   0.601   5.707  1.8020 -0.5603  1.1544
 8100WAT    EPW33108   6.005   0.537   5.661 -0.3321 -0.0264  0.5114
 8101WAT      O33109   2.557   3.871   5.330 -0.4804 -0.3929 -0.5541
 8101WAT     H133110   2.621   3.857   5.387 -0.9447 -1.1019 -0.1934
 8101WAT     H233111   2.505   3.928   5.370 -0.6574 -0.6723 -0.3876
 8101WAT    EPW33112   2.558   3.878   5.344  0.2009  0.2031  0.2676
 8102WAT      O33113   6.795   0.542   2.178 -0.2460  0.4317  0.4680
 8102WAT     H133114   6.822   0.474   2.131 -0.3168  0.3732  0.5132
 8102WAT     H233115   6.730   0.510   2.227 -0.0474  0.4454  0.7463
 8102WAT    EPW33116   6.789   0.528   2.178 -0.8230 -0.4260  0.3171
 8103WAT      O33117   3.191   5.755   0.786 -0.0984 -0.3946  0.3569
 8103WAT     H133118   3.253   5.782   0.841  0.5890  0.0323 -0.5953
 8103WAT     H233119   3.116   5.776   0.826  0.3880 -0.2836  1.2070
 8103WAT    EPW33120   3.189   5.762   0.800 -0.3013  0.8584 -0.1905
 8104WAT      O33121   4.403  -0.006   6.154  0.4547  0.1585  0.5411
 8104WAT     H133122   4.432  -0.001   6.236  1.1874 -0.3502  0.3181
 8104WAT     H233123   4.405   0.077   6.126  1.1661  0.1968  0.7083
 8104WAT    EPW33124   4.407   0.007   6.162  0.2125  0.1330 -0.2421
 8105WAT      O33125   5.897   2.290   6.989  0.0989 -0.1792 -0.0044
 8105WAT     H133126   5.816   2.269   6.964 -0.5883  1.7920  0.3743
 8105WAT     H233127   5.914   2.235   7.054 -1.4311  0.1576  0.7104
 8105WAT    EPW33128   5.888   2.279   6.995 -0.3305  0.0735 -0.1580
 8106WAT      O33129   2.695   6.326   6.305  0.0326 -0.0153  0.1001
 8106WAT     H133130   2.611   6.318   6.326  0.5228  0.7339  2.6228
 8106WAT     H233131   2.733   6.350   6.379  2.4665 -0.0834 -1.0229
 8106WAT    EPW33132   2.689   6.328   6.319  1.3781  0.5410  0.2741
 8107WAT      O33133   0.161   4.201   0.658  0.1217 -0.4273  0.3284
 8107WAT     H133134   0.172   4.207   0.572  0.1515 -0.4719  0.3293
 8107WAT     H233135   0.120   4.124   0.668  2.0259 -1.4646  0.5305
 8107WAT    EPW33136   0.157   4.190   0.647 -0.3707  0.4797  0.2112
 8108WAT      O33137   6.217   4.993   6.657 -0.4808 -0.2820  0.3145
 8108WAT     H133138   6.235   4.934   6.596 -1.7729 -0.6555  0.2675
 8108WAT     H233139   6.240   5.069   6.620  0.3963 -0.6703  0.0559
 8108WAT    EPW33140   6.223   4.996   6.643  0.0875  0.4775  0.1547
 8109WAT      O33141   3.148   5.534   6.880 -0.4384 -0.2059  0.1256
 8109WAT     H133142   3.138   5.549   6.794 -0.5659 -0.0890  0.1612
 8109WAT     H233143   3.084   5.580   6.917 -1.1068 -1.1612  0.2036
 8109WAT    EPW33144   3.137   5.543   6.873  0.0081 -0.8854 -0.0271
 8110WAT      O33145   3.078   1.445   5.501 -0.4951 -0.2574 -0.1770
 8110WAT     H133146   3.055   1.486   5.575  0.1772 -0.2732  0.0558
 8110WAT     H233147   3.049   1.498   5.438 -2.1677 -0.8528  0.0683
 8110WAT    EPW33148   3.070   1.459   5.503  0.0021 -0.0137 -0.2964
 8111WAT      O33149   2.223   0.064   0.374  0.0094 -0.3108 -0.1003
 8111WAT     H133150   2.222   0.150   0.361 -1.2376 -0.4248 -0.9473
 8111WAT     H233151   2.160   0.035   0.321  0.5668 -1.7710  0.0019
 8111WAT    EPW33152   2.214   0.072   0.364 -0.0202 -0.0480 -0.3934
 8112WAT      O33153   5.753   4.939   5.387 -0.5323 -0.7728  0.2920
 8112WAT     H133154   5.802   4.871   5.414  0.4117 -0.6164 -0.9061
 8112WAT     H233155   5.715   4.908   5.314 -1.1828 -0.4554  0.4970
 8112WAT    EPW33156   5.755   4.924   5.380 -0.3465  0.2232 -0.1254
 8113WAT      O33157   3.748   2.387   4.266  0.4334  0.0297  0.0286
 8113WAT     H133158   3.732   2.462   4.306  0.7370  0.3254 -0.3910
 8113WAT     H233159   3.678   2.376   4.214  1.2213  0.9789 -1.2997
 8113WAT    EPW33160   3.735   2.396   4.264  0.6418 -0.1030 -0.0750
 8114WAT      O33161   3.525   1.740   6.188  0.0603  0.3221 -0.2012
 8114WAT     H133162   3.450   1.782   6.204  0.3515  0.4306  0.9952
 8114WAT     H233163   3.505   1.656   6.200  0.2357  0.3898  0.6374
 8114WAT    EPW33164   3.511   1.734   6.192 -0.0943 -0.5482 -0.2566
 8115WAT      O33165   0.742   5.618   7.546 -0.3381  0.1385  0.0215
 8115WAT     H133166   0.816   5.662   7.538 -1.1791  1.8051  1.0360
 8115WAT     H233167   0.762   5.552   7.599  1.0671 -1.1193 -1.9386
 8115WAT    EPW33168   0.756   5.614   7.552 -0.5448  0.2717 -0.1767
 8116WAT      O33169   1.902   3.326   4.652 -0.6740 -0.5476 -0.4474
 8116WAT     H133170   1.890   3.258   4.705  0.2018 -0.7850 -0.5441
 8116WAT     H233171   1.879   3.394   4.702  1.6283 -0.6132  0.8463
 8116WAT    EPW33172   1.897   3.326   4.667  0.0118 -0.0563  0.1790
 8117WAT      O33173   6.674   5.416   6.305  0.2722 -0.4574  0.3036
 8117WAT     H133174   6.592   5.445   6.301  0.5215  0.7059  2.1943
 8117WAT     H233175   6.721   5.488   6.319  1.6458 -1.0969 -0.7088
 8117WAT    EPW33176   6.669   5.431   6.306 -0.3804 -0.6472  0.0946
 8118WAT      O33177   5.470   2.735   2.677  0.0311  0.9010  0.2344
 8118WAT     H133178   5.489   2.656   2.646 -1.4465  0.4318  0.4410
 8118WAT     H233179   5.408   2.764   2.623 -0.4526  1.3084  0.9889
 8118WAT    EPW33180   5.464   2.728   2.665 -0.5785  0.3308 -0.0247
 8119WAT      O33181   3.481   5.515   0.055 -0.7478 -0.3417 -0.6909
 8119WAT     H133182   3.497   5.592   0.091  0.7497 -0.7540 -0.4162
 8119WAT     H233183   3.495   5.528  -0.030  2.6293 -0.9754 -0.3595
 8119WAT    EPW33184   3.485   5.528   0.048 -0.6303  0.0708  0.3876
 8120WAT      O33185   1.425   0.846   2.911 -0.3734  0.7540  0.0795
 8120WAT     H133186   1.397   0.767   2.933  1.9751  0.0050  0.6471
 8120WAT     H233187   1.425   0.844   2.824 -0.3727  0.1528  0.0895
 8120WAT    EPW33188   1.421   0.834   2.902  0.3938  0.8197 -0.3440
 8121WAT      O33189   2.840   3.045   5.898  0.2674 -0.0981  0.0107
 8121WAT     H133190   2.823   2.984   5.838  0.2082  0.1038 -0.1764
 8121WAT     H233191   2.786   3.110   5.877  1.9692  0.9952 -1.2520
 8121WAT    EPW33192   2.830   3.045   5.886 -0.1099 -0.4287  0.0059
 8122WAT      O33193   6.204   6.098   5.807 -0.4418  0.3745  0.0550
 8122WAT     H133194   6.281   6.071   5.775 -1.8647 -4.7697  0.1688
 8122WAT     H233195   6.225   6.127   5.887  1.4033 -0.7087  0.0247
 8122WAT    EPW33196   6.219   6.099   5.814  0.4001 -0.0577  0.1680
 8123WAT      O33197   1.930   3.989   5.412  0.4868 -0.1129 -0.1663
 8123WAT     H133198   1.947   4.060   5.459 -0.4861 -0.6259  1.0144
 8123WAT     H233199   1.855   3.960   5.445  1.1353 -2.0157 -0.2391
 8123WAT    EPW33200   1.921   3.995   5.424  0.0070  0.2731 -0.3629
 8124WAT      O33201   7.350   3.035   1.868 -0.1283 -0.1146  0.0926
 8124WAT     H133202   7.281   3.078   1.901  0.6366  1.4332 -0.2388
 8124WAT     H233203   7.313   2.971   1.821 -1.2813 -0.6042  1.5667
 8124WAT    EPW33204   7.334   3.032   1.866 -0.0295 -0.4235 -0.3021
 8125WAT      O33205   6.258   5.325   3.345 -0.0670  0.2728  0.6791
 8125WAT     H133206   6.283   5.278   3.276 -0.3553  0.4366  0.4592
 8125WAT     H233207   6.333   5.341   3.387  0.1997  0.7760  0.0244
 8125WAT    EPW33208   6.273   5.320   3.341 -0.1283  0.5480 -0.7463
 8126WAT      O33209   6.341   4.500   1.776  0.1192 -0.9288  0.1763
 8126WAT     H133210   6.307   4.580   1.769  0.8003 -0.1809  3.4855
 8126WAT     H233211   6.271   4.448   1.771 -0.5041 -0.0486 -0.6216
 8126WAT    EPW33212   6.325   4.504   1.774  0.2159 -0.8927 -0.3221
 8127WAT      O33213   7.635   7.197   1.763  0.1258 -0.4440  0.4619
 8127WAT     H133214   7.577   7.196   1.698  0.1390 -2.8675  0.4070
 8127WAT     H233215   7.587   7.204   1.835  0.0323  1.0328  0.2740
 8127WAT    EPW33216   7.620   7.198   1.764 -0.1029  0.0420  0.0748
 8128WAT      O33217   1.356   6.237   5.639 -0.1886 -0.1060  0.0385
 8128WAT     H133218   1.312   6.300   5.681  0.1071 -0.2670  0.6003
 8128WAT     H233219   1.407   6.281   5.584 -0.2160  0.1325  0.2001
 8128WAT    EPW33220   1.357   6.253   5.637  0.9013  0.0323 -0.0295
 8129WAT      O33221   2.686   2.452   2.512  0.0442 -0.2238  0.7184
 8129WAT     H133222   2.733   2.460   2.440 -1.4486 -1.5598 -0.4829
 8129WAT     H233223   2.673   2.534   2.538  3.7086  0.1967  1.6784
 8129WAT    EPW33224   2.691   2.465   2.505 -0.0426 -0.6367  0.0427
 8130WAT      O33225   4.092   7.367   0.892 -0.1040  0.0795  0.0900
 8130WAT     H133226   4.064   7.370   0.810 -0.0218  0.2909  0.0664
 8130WAT     H233227   4.134   7.291   0.898 -1.9379 -0.9598  0.5485
 8130WAT    EPW33228   4.094   7.357   0.881 -0.1922  0.0953 -0.3762
 8131WAT      O33229   1.023   0.978   2.758 -0.3633  0.1734  0.1272
 8131WAT     H133230   1.058   0.907   2.719  0.4900  0.3753  0.5014
 8131WAT     H233231   1.009   0.951   2.840 -1.7094 -0.1024 -0.1801
 8131WAT    EPW33232   1.026   0.963   2.764  0.7288  0.4134 -0.0390
 8132WAT      O33233   3.656   7.504   2.581  0.3336 -0.1082 -0.0277
 8132WAT     H133234   3.597   7.451   2.617 -0.9746  0.0749 -1.7555
 8132WAT     H233235   3.635   7.503   2.496  3.3045 -0.6623 -0.9050
 8132WAT    EPW33236   3.644   7.496   2.574  0.0443  0.3735  0.5785
 8133WAT      O33237   6.213   7.451   4.751 -0.2589 -0.4451  0.0541
 8133WAT     H133238   6.208   7.519   4.697  0.2179 -0.2093  0.2974
 8133WAT     H233239   6.228   7.383   4.698  2.1827  0.0554 -0.0129
 8133WAT    EPW33240   6.215   7.451   4.735 -0.3212  0.0868 -0.2120
 8134WAT      O33241   6.988   4.213   5.286  0.3560  0.0292 -0.1672
 8134WAT     H133242   6.915   4.249   5.256  1.0966  1.1831 -0.6536
 8134WAT     H233243   6.960   4.156   5.346 -0.9836 -0.2666 -1.0514
 8134WAT    EPW33244   6.973   4.210   5.291  0.2224 -0.5901  0.4002
 8135WAT      O33245   3.392   3.418   6.573 -0.3100 -0.0765  0.0024
 8135WAT     H133246   3.315   3.379   6.562 -0.4685  0.4068 -0.6374
 8135WAT     H233247   3.391   3.483   6.515  0.3932  0.2165  0.3036
 8135WAT    EPW33248   3.380   3.422   6.563  0.0159  0.3738 -0.4626
 8136WAT      O33249   6.846   1.032   0.335 -0.0161  0.2289 -0.4723
 8136WAT     H133250   6.916   1.077   0.308  0.3670 -1.1942 -1.9502
 8136WAT     H233251   6.788   1.043   0.270 -0.0642 -1.0429 -0.6702
 8136WAT    EPW33252   6.848   1.041   0.321  0.1257  0.2160  0.2606
 8137WAT      O33253   5.801   3.998   3.687 -0.2461 -0.0058  0.2005
 8137WAT     H133254   5.867   3.981   3.633  0.6253 -0.2499  1.3079
 8137WAT     H233255   5.761   3.921   3.695 -0.7262  0.1595 -0.5317
 8137WAT    EPW33256   5.805   3.984   3.680  0.0421  0.0920  0.2374
 8138WAT      O33257   0.576   1.031   4.624 -0.2210 -0.1908 -0.2554
 8138WAT     H133258   0.507   1.075   4.655 -0.6004  0.5179 -1.9745
 8138WAT     H233259   0.624   1.016   4.695  0.0554  3.2369  0.4897
 8138WAT    EPW33260   0.573   1.035   4.639  0.4349  0.2156 -0.2476
 8139WAT      O33261   3.662   7.349   5.894 -0.1427 -0.6143 -0.6959
 8139WAT     H133262   3.706   7.277   5.873 -0.4510 -0.8631 -0.4780
 8139WAT     H233263   3.724   7.401   5.928 -0.0848 -1.1099 -0.0261
 8139WAT    EPW33264   3.678   7.346   5.896 -0.2202  0.2015  0.5331
 8140WAT      O33265   2.096   3.723   6.956 -0.1252 -0.0996 -0.0207
 8140WAT     H133266   2.053   3.690   7.024 -2.7042  1.2310 -0.9070
 8140WAT     H233267   2.136   3.794   6.989 -0.1893 -0.2514  0.3905
 8140WAT    EPW33268   2.096   3.729   6.971  0.5815  0.0672  0.3244
 8141WAT      O33269   5.895   1.978   5.672 -0.0344  0.2689 -0.0990
 8141WAT     H133270   5.869   2.037   5.613 -0.1277 -0.0361 -0.3665
 8141WAT     H233271   5.981   1.992   5.678  0.3026 -0.8438 -1.6274
 8141WAT    EPW33272   5.904   1.989   5.664  0.3890  0.1724  0.2708
 8142WAT      O33273   0.466   3.514   3.704  0.0202 -0.3612  1.0690
 8142WAT     H133274   0.458   3.507   3.790 -0.0735 -1.9861  0.9688
 8142WAT     H233275   0.469   3.431   3.677  0.8137  0.1162 -0.4266
 8142WAT    EPW33276   0.465   3.500   3.713 -0.5509 -0.0892 -0.0266
 8143WAT      O33277   0.659   6.764   4.044  0.2508 -0.3188  0.1150
 8143WAT     H133278   0.738   6.777   4.079  1.1843 -0.8306 -1.7133
 8143WAT     H233279   0.657   6.679   4.030 -0.3175 -0.1928 -0.5900
 8143WAT    EPW33280   0.670   6.754   4.047 -0.3588  0.3945  0.3785
 8144WAT      O33281   6.756   0.425   1.105  0.2004 -0.2755 -0.2748
 8144WAT     H133282   6.826   0.429   1.052  0.1778  2.7537 -0.2867
 8144WAT     H233283   6.792   0.413   1.184  0.8498  1.5041 -0.2460
 8144WAT    EPW33284   6.772   0.424   1.109  0.2748  0.2408  0.5632
 8145WAT      O33285   5.883   1.692   2.152 -0.6639  0.2141  0.3848
 8145WAT     H133286   5.920   1.757   2.198  0.1627  1.7372 -2.2503
 8145WAT     H233287   5.797   1.708   2.161 -0.5199  0.6925  1.0608
 8145WAT    EPW33288   5.875   1.704   2.160  0.5603 -0.3078 -0.4611
 8146WAT      O33289   3.139   1.758   2.117  0.4184  0.1685 -0.4742
 8146WAT     H133290   3.144   1.815   2.051 -2.1220  0.8119 -0.1803
 8146WAT     H233291   3.182   1.688   2.086  2.0498  1.5460 -1.5248
 8146WAT    EPW33292   3.146   1.756   2.103 -0.3587 -0.5320 -0.3131
 8147WAT      O33293   3.688   2.035   6.901 -0.5075 -0.0210 -0.1200
 8147WAT     H133294   3.652   1.964   6.937  2.3241 -0.9392  1.2200
 8147WAT     H233295   3.663   2.030   6.817 -2.3689 -1.2106  0.4307
 8147WAT    EPW33296   3.679   2.024   6.894 -0.3406 -0.1545 -0.2912
 8148WAT      O33297   5.147   5.186   4.084  0.0096  0.0368  0.1653
 8148WAT     H133298   5.088   5.189   4.149 -0.0527  1.1706  0.0655
 8148WAT     H233299   5.176   5.103   4.088 -0.8038 -0.2380  0.9082
 8148WAT    EPW33300   5.142   5.174   4.095 -0.1647 -0.2166  0.0411
 8149WAT      O33301   2.305   0.030   7.137  0.0502 -0.0677 -0.0160
 8149WAT     H133302   2.241   0.006   7.082  1.0632 -1.5612 -0.6116
 8149WAT     H233303   2.314  -0.039   7.189  2.6326 -0.8656 -1.3565
 8149WAT    EPW33304   2.296   0.016   7.137  0.3478  0.0946  0.5954
 8150WAT      O33305   0.261   2.316   2.320  0.1644  0.2183  0.1676
 8150WAT     H133306   0.209   2.265   2.368 -0.0992  0.3551  0.0312
 8150WAT     H233307   0.330   2.266   2.304  0.0703  0.0316  0.3452
 8150WAT    EPW33308   0.263   2.301   2.325  0.3135  0.1495  0.3043
 8151WAT      O33309   3.060   4.269   6.447  0.0731  0.4747 -0.6106
 8151WAT     H133310   3.038   4.187   6.427 -0.1890  0.3693  0.0948
 8151WAT     H233311   3.043   4.275   6.532  1.9163  0.6731 -0.2219
 8151WAT    EPW33312   3.054   4.258   6.457  0.3769  0.3620 -0.0537
 8152WAT      O33313   2.300   4.777   4.145 -0.1804 -0.1879  0.3116
 8152WAT     H133314   2.234   4.720   4.145  0.7324 -1.3469 -1.5793
 8152WAT     H233315   2.366   4.732   4.108  1.3750  1.2602  1.1664
 8152WAT    EPW33316   2.300   4.762   4.140 -0.0166 -0.0676 -0.6256
 8153WAT      O33317   4.381   2.245   7.480  0.2769  0.1275 -0.0547
 8153WAT     H133318   4.467   2.253   7.474  0.6859 -2.6188  0.8629
 8153WAT     H233319   4.369   2.160   7.494 -2.6337  0.3222 -0.7337
 8153WAT    EPW33320   4.392   2.234   7.481 -0.3317 -0.0039 -0.1545
 8154WAT      O33321   2.201   2.643   0.921 -0.4270 -0.0796 -0.4185
 8154WAT     H133322   2.180   2.659   0.838  0.3391 -0.8420 -0.7776
 8154WAT     H233323   2.216   2.722   0.955 -1.7921  0.3226 -0.7053
 8154WAT    EPW33324   2.200   2.657   0.914 -0.2772 -0.1435 -0.1443
 8155WAT      O33325   2.906   4.623   2.247  0.2909 -0.3189 -0.0474
 8155WAT     H133326   2.980   4.666   2.263  0.4435 -0.3313 -0.7229
 8155WAT     H233327   2.848   4.663   2.299  0.7010 -0.1262  0.2722
 8155WAT    EPW33328   2.908   4.635   2.257  0.0471 -0.6600 -0.0813
 8156WAT      O33329   2.021   1.005   3.846 -0.0504  0.2658  0.1611
 8156WAT     H133330   2.070   0.956   3.899  0.4233  0.8526  0.2816
 8156WAT     H233331   2.049   1.086   3.862 -1.0084  0.6083  0.1729
 8156WAT    EPW33332   2.033   1.010   3.856 -0.1642  0.4745  0.0678
 8157WAT      O33333   0.932   1.718   7.099 -0.3561 -0.3900 -0.1046
 8157WAT     H133334   0.993   1.780   7.102 -0.3113 -0.4852  1.7738
 8157WAT     H233335   0.904   1.721   7.016  1.6713  0.1428 -0.8300
 8157WAT    EPW33336   0.937   1.728   7.087 -0.2186  0.4244  0.8054
 8158WAT      O33337   6.205   6.787   5.441 -0.5325  0.8831  0.3529
 8158WAT     H133338   6.138   6.743   5.475 -1.5839  1.2075 -1.2187
 8158WAT     H233339   6.193   6.869   5.470 -0.3261  0.7748  0.7533
 8158WAT    EPW33340   6.194   6.793   5.450 -0.7588 -0.2037  0.0826
 8159WAT      O33341   6.222   0.187   1.676 -0.0114  0.0125  0.2136
 8159WAT     H133342   6.147   0.200   1.633  0.5091  0.8767 -0.4423
 8159WAT     H233343   6.280   0.171   1.613  0.6689  0.8559  0.6149
 8159WAT    EPW33344   6.219   0.186   1.661  0.0854  0.4054 -0.7367
 8160WAT      O33345   1.519   2.721   0.223  0.1601 -0.0463 -0.1691
 8160WAT     H133346   1.594   2.748   0.258  0.3467 -0.3641 -0.3209
 8160WAT     H233347   1.465   2.716   0.292 -0.3828  2.3134 -0.3287
 8160WAT    EPW33348   1.522   2.724   0.239  0.2607 -0.0645  0.5094
 8161WAT      O33349   2.653   1.898   1.726  0.7005  0.4095  0.1427
 8161WAT     H133350   2.675   1.925   1.806  0.9088 -1.1082  0.6322
 8161WAT     H233351   2.649   1.972   1.679  3.9693  1.0879  0.7047
 8161WAT    EPW33352   2.655   1.913   1.731 -0.0317  0.1039 -0.0369
 8162WAT      O33353   5.808   7.280   3.022  0.2833  0.7213  0.3707
 8162WAT     H133354   5.846   7.308   2.949  1.5793  1.2605  1.2136
 8162WAT     H233355   5.834   7.338   3.082 -0.2359 -0.0659  1.3866
 8162WAT    EPW33356   5.818   7.293   3.020  0.2967 -0.1188 -0.3953
 8163WAT      O33357   5.691   7.134   4.385 -0.1743  0.0591 -0.1674
 8163WAT     H133358   5.650   7.141   4.461  1.5927 -1.3976  1.0139
 8163WAT     H233359   5.775   7.149   4.405  0.4017 -0.7487 -1.7230
 8163WAT    EPW33360   5.698   7.137   4.399  0.2824  0.1447 -0.0257
 8164WAT      O33361   4.357   5.172   6.286  0.0373 -0.1797  0.0206
 8164WAT     H133362   4.278   5.207   6.299 -0.8369 -1.4145 -1.4904
 8164WAT     H233363   4.399   5.232   6.240 -0.9671 -0.5055 -1.3861
 8164WAT    EPW33364   4.351   5.186   6.281  0.2209 -0.2797  0.3270
 8165WAT      O33365   7.171   0.533   6.391  0.4229  0.1448 -0.1200
 8165WAT     H133366   7.216   0.606   6.376 -0.4341  0.8148  0.4487
 8165WAT     H233367   7.219   0.471   6.353  0.4345  1.1946 -1.9436
 8165WAT    EPW33368   7.185   0.535   6.383 -0.5856 -0.0155  0.0204
 8166WAT      O33369   4.298   7.513   3.576 -0.4138 -0.3015  0.0189
 8166WAT     H133370   4.269   7.451   3.521 -1.9745  0.7141 -0.3784
 8166WAT     H233371   4.277   7.587   3.535  2.3009  0.5716  0.0031
 8166WAT    EPW33372   4.290   7.515   3.562  0.0252  0.0037 -0.3263
 8167WAT      O33373   7.003   5.627   2.012 -0.0927  0.4558 -0.8472
 8167WAT     H133374   7.062   5.597   2.069  1.3157  0.9452 -1.9826
 8167WAT     H233375   6.940   5.567   2.014  0.9021 -0.6150 -0.3036
 8167WAT    EPW33376   7.002   5.614   2.020  0.3656 -0.6418  0.3957
 8168WAT      O33377   4.363   4.868   6.946 -0.4794  0.9762 -0.2470
 8168WAT     H133378   4.430   4.821   6.976 -1.6834  0.0968  1.2292
 8168WAT     H233379   4.377   4.871   6.860  1.6334  1.1656  0.0586
 8168WAT    EPW33380   4.375   4.861   6.938  0.3514  0.6179  0.7773
 8169WAT      O33381   7.314   5.484   5.406 -0.1237 -0.8641 -0.1083
 8169WAT     H133382   7.272   5.556   5.433 -0.9174 -2.0106  1.9392
 8169WAT     H233383   7.397   5.511   5.399 -0.1110 -0.0520  2.2161
 8169WAT    EPW33384   7.320   5.499   5.409  0.0970  0.1648  0.0825
 8170WAT      O33385   5.822   5.044   6.189 -0.1892  0.0614  0.0892
 8170WAT     H133386   5.737   5.037   6.171 -0.1628 -4.5992  0.6516
 8170WAT     H233387   5.825   5.040   6.276  0.6617  0.4508  0.0929
 8170WAT    EPW33388   5.810   5.043   6.199  0.4708  0.3299  0.4405
 8171WAT      O33389   3.954   6.875   0.545  0.0041 -0.7074  0.2586
 8171WAT     H133390   3.876   6.869   0.505  0.3176 -0.2459 -0.4294
 8171WAT     H233391   3.933   6.904   0.625 -0.5940 -1.2898  0.3232
 8171WAT    EPW33392   3.939   6.878   0.551 -0.2403 -0.4995 -0.0796
 8172WAT      O33393   5.721   1.542   7.552  0.4387 -0.3497 -0.3283
 8172WAT     H133394   5.767   1.573   7.618 -0.8733  1.1978 -0.0858
 8172WAT     H233395   5.730   1.455   7.559  1.0361 -0.1762  1.3217
 8172WAT    EPW33396   5.729   1.533   7.563  0.4943  0.2238 -0.0527
 8173WAT      O33397   5.103   1.155   0.119  0.1083 -0.6459 -0.2391
 8173WAT     H133398   5.023   1.148   0.153  0.1014 -2.4900 -0.5080
 8173WAT     H233399   5.152   1.110   0.175  0.6195 -1.1023 -1.0359
 8173WAT    EPW33400   5.098   1.147   0.132  0.5831  0.1645  0.7511
 8174WAT      O33401   6.076   0.604   2.397  0.2400  0.0151  0.7981
 8174WAT     H133402   6.055   0.535   2.346 -0.4324 -0.4652  1.6909
 8174WAT     H233403   6.144   0.639   2.356  2.3561 -2.7252  1.6336
 8174WAT    EPW33404   6.083   0.599   2.383 -0.9699 -0.6760  0.3144
 8175WAT      O33405   2.878   3.853   1.068  0.3458 -0.6055  0.2938
 8175WAT     H133406   2.822   3.818   1.125  0.9720 -0.2138  1.1626
 8175WAT     H233407   2.950   3.806   1.079  0.8607  0.2554  0.7221
 8175WAT    EPW33408   2.880   3.841   1.078 -0.1877  0.7457 -0.0581
 8176WAT      O33409   0.439   1.519   3.437  0.3617 -0.3869  0.0641
 8176WAT     H133410   0.512   1.529   3.392 -0.3371  0.1647 -0.9787
 8176WAT     H233411   0.428   1.596   3.477  1.1414 -0.9709  1.4740
 8176WAT    EPW33412   0.448   1.532   3.436 -0.0357 -0.0578 -0.3731
 8177WAT      O33413   5.131   1.966   4.535 -0.3050  0.2623 -0.0952
 8177WAT     H133414   5.211   1.930   4.539  0.3216  1.4547 -0.9993
 8177WAT     H233415   5.091   1.935   4.606  0.1413 -2.2064 -0.8154
 8177WAT    EPW33416   5.137   1.956   4.546 -0.6277 -0.4130 -0.0513
 8178WAT      O33417   3.899   0.956   0.933 -0.0492 -0.3489 -0.7260
 8178WAT     H133418   3.979   0.976   0.906  0.4415  0.7730  1.3214
 8178WAT     H233419   3.869   1.031   0.965 -1.7661 -0.8548 -1.0639
 8178WAT    EPW33420   3.906   0.970   0.934 -0.0491  0.7009 -0.0049
 8179WAT      O33421   2.115   1.150   2.748  0.0794  0.2531  0.0796
 8179WAT     H133422   2.073   1.114   2.816  0.6545 -1.4551 -0.4173
 8179WAT     H233423   2.196   1.164   2.779  0.1521  0.1118 -0.0438
 8179WAT    EPW33424   2.121   1.146   2.763 -0.2048  0.2379  0.0383
 8180WAT      O33425   1.457   4.243   2.183  0.0885  0.1194 -0.1396
 8180WAT     H133426   1.506   4.312   2.205 -0.9139  1.1503 -0.9551
 8180WAT     H233427   1.418   4.221   2.258  0.5825  0.3160  0.1755
 8180WAT    EPW33428   1.458   4.250   2.197 -0.3980  0.8410 -0.3276
 8181WAT      O33429   3.406   0.295   6.503 -0.7396 -0.4357  0.4107
 8181WAT     H133430   3.370   0.222   6.532  0.8760 -1.1088  0.8252
 8181WAT     H233431   3.343   0.355   6.512 -1.5214 -1.4181  1.7020
 8181WAT    EPW33432   3.391   0.293   6.509 -0.7105 -0.0215 -0.7868
 8182WAT      O33433   0.770   2.955   3.313 -0.4522 -0.4211  0.1668
 8182WAT     H133434   0.701   2.973   3.262  0.2406 -1.4991 -1.2264
 8182WAT     H233435   0.838   2.982   3.265  0.1449  0.1176  1.2833
 8182WAT    EPW33436   0.770   2.962   3.298 -0.3103  0.4389  0.1333
 8183WAT      O33437   2.714   4.696   0.280 -0.8377  0.2590 -0.1384
 8183WAT     H133438   2.767   4.626   0.275 -1.2020 -0.0015 -0.4202
 8183WAT     H233439   2.721   4.721   0.363 -0.8117 -0.1950 -0.0018
 8183WAT    EPW33440   2.723   4.689   0.291 -0.0392  0.0800 -0.1411
 8184WAT      O33441   7.116   1.172   7.497  0.1744  0.1283 -0.1684
 8184WAT     H133442   7.155   1.185   7.574  0.1500 -0.1727 -0.1033
 8184WAT     H233443   7.034   1.200   7.511  0.0766 -0.2501  0.0194
 8184WAT    EPW33444   7.110   1.178   7.510  0.4104 -0.2652  1.0482
 8185WAT      O33445   5.771   0.949   3.075 -0.2245  0.1161  0.4172
 8185WAT     H133446   5.746   0.866   3.088  0.5024 -0.1829 -0.0382
 8185WAT     H233447   5.858   0.946   3.084 -0.0959  0.6437 -0.5027
 8185WAT    EPW33448   5.780   0.936   3.078  0.1360  0.4871 -0.3216
 8186WAT      O33449   2.225   6.572   7.384  0.1658 -0.3039 -0.3394
 8186WAT     H133450   2.201   6.554   7.302 -0.7353  0.0520 -0.1717
 8186WAT     H233451   2.244   6.657   7.381 -0.2759 -0.1961 -0.0919
 8186WAT    EPW33452   2.224   6.582   7.371 -0.0365  0.3721  0.2740
 8187WAT      O33453   5.949   0.654   2.971 -0.3955 -0.3479 -0.0050
 8187WAT     H133454   5.951   0.567   2.958  0.6895 -0.3275 -0.0041
 8187WAT     H233455   5.974   0.663   3.054 -0.3226 -0.0134 -0.0643
 8187WAT    EPW33456   5.953   0.642   2.981  0.5702 -0.3395  0.0646
 8188WAT      O33457   0.095   4.170   3.205  0.6627  0.0015  0.3474
 8188WAT     H133458   0.029   4.199   3.157  0.1766  1.2635  1.6838
 8188WAT     H233459   0.149   4.239   3.209  1.4704 -0.6098  0.2930
 8188WAT    EPW33460   0.093   4.185   3.199 -0.6848 -0.1663 -0.5821
 8189WAT      O33461   5.172   2.051   1.042 -0.1270  0.2546 -0.5851
 8189WAT     H133462   5.211   2.107   1.096 -1.2992  1.7119 -1.1928
 8189WAT     H233463   5.206   2.070   0.964 -1.1233  0.7084 -0.9224
 8189WAT    EPW33464   5.183   2.062   1.038  0.0736  0.4436 -0.2993
 8190WAT      O33465   3.124   1.715   3.518 -0.2485 -0.0205 -0.2811
 8190WAT     H133466   3.174   1.786   3.514  1.3183 -1.1065 -1.3701
 8190WAT     H233467   3.075   1.728   3.589 -0.8772  2.6407 -1.0901
 8190WAT    EPW33468   3.124   1.727   3.528  0.0090  0.0002  0.7362
 8191WAT      O33469   6.257   6.036   2.178 -0.7682 -0.2319  0.0071
 8191WAT     H133470   6.334   6.076   2.189  0.1125 -1.8435  0.0621
 8191WAT     H233471   6.233   6.059   2.098  0.1831 -0.3200 -0.3199
 8191WAT    EPW33472   6.265   6.045   2.168 -0.9146  0.2590  0.4148
 8192WAT      O33473   7.525   6.949   4.421  0.5537  0.5267 -0.0532
 8192WAT     H133474   7.493   6.959   4.340  1.9815  0.1869 -0.6872
 8192WAT     H233475   7.610   6.938   4.408  0.7733  0.2067  1.4989
 8192WAT    EPW33476   7.533   6.949   4.407 -0.4722 -0.1225  0.6783
 8193WAT      O33477   0.432   1.930   2.120  0.1880 -0.1375 -0.6535
 8193WAT     H133478   0.463   2.007   2.148  1.5880 -0.5816 -0.9196
 8193WAT     H233479   0.503   1.881   2.112 -0.7436 -1.6502  0.0210
 8193WAT    EPW33480   0.447   1.934   2.123  0.0027  0.2901  0.2035
 8194WAT      O33481   3.887   5.327   7.324  0.0899  0.2663  0.2784
 8194WAT     H133482   3.841   5.347   7.395 -0.8671 -1.0818  0.0787
 8194WAT     H233483   3.851   5.253   7.297  1.1351  0.1990 -1.0152
 8194WAT    EPW33484   3.875   5.319   7.330  0.0510  0.7545 -0.3236
 8195WAT      O33485   5.656   7.229   1.919  0.7447  0.2753 -0.3220
 8195WAT     H133486   5.645   7.275   1.846 -1.8642  1.0810  0.4881
 8195WAT     H233487   5.626   7.150   1.898 -1.7547  0.9870  0.3033
 8195WAT    EPW33488   5.650   7.224   1.905 -0.6355  0.1613  0.4270
 8196WAT      O33489   2.140   5.033   7.502 -0.2413 -0.2010 -0.1512
 8196WAT     H133490   2.154   5.038   7.416 -0.7106  0.6524 -0.1925
 8196WAT     H233491   2.054   5.044   7.509 -0.2060 -0.2772  0.4348
 8196WAT    EPW33492   2.129   5.035   7.490 -0.5033 -0.5212  0.0785
 8197WAT      O33493   2.349   7.171   4.404 -0.3896  1.0985 -0.3311
 8197WAT     H133494   2.394   7.103   4.433 -0.9965  1.2436  1.0362
 8197WAT     H233495   2.406   7.214   4.354  0.9946  1.2388  1.2821
 8197WAT    EPW33496   2.364   7.167   4.401 -0.2628  0.0978 -0.4158
 8198WAT      O33497   0.249   0.551   4.339  0.2954 -0.2099  0.1845
 8198WAT     H133498   0.242   0.637   4.350  1.3134 -0.0026 -0.5840
 8198WAT     H233499   0.198   0.534   4.270 -1.8751 -0.6562  1.8072
 8198WAT    EPW33500   0.240   0.561   4.331  0.0268  0.1672  0.3830
 8199WAT      O33501   7.407   1.330   6.854 -0.3191  0.4842  0.8135
 8199WAT     H133502   7.360   1.308   6.784  2.6944  0.3524 -1.3210
 8199WAT     H233503   7.432   1.412   6.838 -0.6435  0.9433  2.4390
 8199WAT    EPW33504   7.403   1.339   6.842  0.4466 -0.2905  0.0719
 8200WAT      O33505   6.231   4.117   5.808 -0.3399  0.2560 -0.0855
 8200WAT     H133506   6.198   4.117   5.727 -0.5926  0.4548  0.0179
 8200WAT     H233507   6.244   4.202   5.825 -0.6288  0.2369  0.2229
 8200WAT    EPW33508   6.228   4.130   5.798 -0.3025 -0.3359 -0.3014
 8201WAT      O33509   6.319   1.320   0.477 -0.4263  0.2440  0.0061
 8201WAT     H133510   6.343   1.398   0.507 -0.5213  0.3957 -0.3046
 8201WAT     H233511   6.257   1.294   0.532  1.1685 -0.6551  1.4952
 8201WAT    EPW33512   6.314   1.327   0.489  0.0114  0.0010  0.4685
 8202WAT      O33513   7.312   3.382   3.558  0.1827  0.2613 -0.0068
 8202WAT     H133514   7.335   3.434   3.492 -1.0358  0.1811 -0.5193
 8202WAT     H233515   7.302   3.437   3.625 -0.2833  0.5902 -0.3385
 8202WAT    EPW33516   7.314   3.398   3.558 -0.2380  0.4214  0.5805
 8203WAT      O33517   0.855   0.770   0.984  0.3360 -0.2092  0.3776
 8203WAT     H133518   0.914   0.714   1.015  2.4664 -0.2982 -3.2683
 8203WAT     H233519   0.807   0.721   0.930 -0.1052  0.7431 -0.1206
 8203WAT    EPW33520   0.857   0.754   0.980  0.0513  0.0637 -0.0030
 8204WAT      O33521   1.596   0.083   2.671 -0.5383  0.0447 -0.1526
 8204WAT     H133522   1.581   0.123   2.747 -0.6797 -2.1858  1.0855
 8204WAT     H233523   1.682   0.095   2.659  0.1029 -1.7207  1.8151
 8204WAT    EPW33524   1.607   0.091   2.681  0.8142  0.3103  0.5078
 8205WAT      O33525   6.147   6.957   1.939  0.2214  0.0633 -0.2231
 8205WAT     H133526   6.144   6.956   1.851 -0.3097  1.7047 -0.2637
 8205WAT     H233527   6.163   7.041   1.957 -1.7828  0.1854  1.2977
 8205WAT    EPW33528   6.149   6.970   1.928 -0.2659  0.0663  0.9100
 8206WAT      O33529   6.138   0.093   4.578 -0.1294 -0.1675  0.5461
 8206WAT     H133530   6.202   0.134   4.534  0.4347  2.4434  3.4475
 8206WAT     H233531   6.065   0.128   4.546 -0.3130 -2.6285 -2.2549
 8206WAT    EPW33532   6.137   0.104   4.567 -0.7276  0.1265 -0.6961
 8207WAT      O33533   2.765   4.832   4.057 -0.4610 -0.3382  0.0281
 8207WAT     H133534   2.824   4.792   4.108 -0.0224  0.7532  0.3947
 8207WAT     H233535   2.768   4.915   4.083 -1.0724  0.0203 -0.9885
 8207WAT    EPW33536   2.774   4.838   4.068  0.3525 -0.0081 -0.2635
 8208WAT      O33537   0.458   6.122   0.025  0.3603 -0.2848  0.0250
 8208WAT     H133538   0.512   6.061   0.056 -0.0006 -1.2975 -1.2809
 8208WAT     H233539   0.458   6.109  -0.061  0.0994  1.4361 -0.2840
 8208WAT    EPW33540   0.466   6.111   0.017 -0.3015  0.2835  0.7721
 8209WAT      O33541   3.162   3.587   1.402  0.0127 -0.5544  0.0979
 8209WAT     H133542   3.110   3.531   1.443 -0.5018  0.2558  0.5758
 8209WAT     H233543   3.172   3.652   1.459 -3.5487  2.3251 -2.0910
 8209WAT    EPW33544   3.155   3.589   1.416  0.2029  0.3839 -0.0502
 8210WAT      O33545   3.610   0.951   4.763 -0.4473  0.3267 -0.4246
 8210WAT     H133546   3.544   1.006   4.775 -1.0908  0.2900 -3.1200
 8210WAT     H233547   3.674   1.001   4.730  0.0457 -0.0415 -0.0591
 8210WAT    EPW33548   3.610   0.967   4.760  0.2971 -0.2850  0.0358
 8211WAT      O33549   1.242   5.037   0.443 -0.4604  0.1336 -0.4810
 8211WAT     H133550   1.308   5.077   0.484  0.9274 -2.6811  0.2928
 8211WAT     H233551   1.259   5.053   0.358  0.1421  0.9763 -0.2224
 8211WAT    EPW33552   1.255   5.045   0.436  0.3585 -0.5227  0.7992
 8212WAT      O33553   6.453   4.472   3.516 -0.1181 -0.1778 -0.0525
 8212WAT     H133554   6.531   4.438   3.499 -0.3368 -0.5105 -0.4074
 8212WAT     H233555   6.426   4.428   3.586  0.3198  0.4379  0.5035
 8212WAT    EPW33556   6.461   4.460   3.524 -0.0068  0.4234 -0.3012
 8213WAT      O33557   2.425   1.819   6.277  0.4658  0.0617  0.1247
 8213WAT     H133558   2.474   1.884   6.309 -1.2155  0.9272  1.1414
 8213WAT     H233559   2.372   1.860   6.221  1.0999 -0.9024 -1.2261
 8213WAT    EPW33560   2.424   1.835   6.273  0.1737  0.3215  0.0110
 8214WAT      O33561   4.225   1.263   5.744 -0.0170 -0.4563  0.1973
 8214WAT     H133562   4.217   1.186   5.785  0.2005 -0.1715  0.7789
 8214WAT     H233563   4.283   1.247   5.681  1.2642 -0.3887  1.3061
 8214WAT    EPW33564   4.232   1.249   5.741  0.0642  0.2999 -0.3700
 8215WAT      O33565   0.066   6.659   3.259  0.2072 -0.4187 -0.0420
 8215WAT     H133566   0.022   6.709   3.202  0.0590 -1.1865 -0.6280
 8215WAT     H233567   0.116   6.716   3.302 -0.2389  0.2800 -0.4266
 8215WAT    EPW33568   0.067   6.675   3.257  0.3827 -0.1753 -0.0174
 8216WAT      O33569   7.397   4.828   2.761 -0.3897  0.4111 -0.4686
 8216WAT     H133570   7.315   4.849   2.740 -0.1541  0.2197 -1.6170
 8216WAT     H233571   7.388   4.758   2.812 -1.0516  1.7489  1.3696
 8216WAT    EPW33572   7.383   4.821   2.766  0.0363  0.3629 -0.0042
 8217WAT      O33573   7.065   4.438   6.908 -0.1173 -0.2698 -0.4600
 8217WAT     H133574   6.991   4.394   6.923  1.4747 -2.6101  1.4159
 8217WAT     H233575   7.043   4.521   6.918 -2.5435 -0.8647 -0.2681
 8217WAT    EPW33576   7.051   4.444   6.912  0.6127  0.2720  0.1769
 8218WAT      O33577   4.732   2.068   6.582 -0.2640 -0.5169  0.3772
 8218WAT     H133578   4.677   2.133   6.564 -0.7105 -0.8192  0.6320
 8218WAT     H233579   4.683   2.012   6.628 -0.1208 -1.4061 -0.5083
 8218WAT    EPW33580   4.716   2.069   6.586  0.1889  0.1136  0.0345
 8219WAT      O33581   0.145   2.480   0.477 -0.2682  0.0057 -0.6948
 8219WAT     H133582   0.141   2.395   0.496  1.5864 -0.1228 -0.6783
 8219WAT     H233583   0.161   2.480   0.391  1.1018  0.2812 -0.4518
 8219WAT    EPW33584   0.147   2.467   0.467  0.1382 -0.3109  0.0671
 8220WAT      O33585   0.028   7.107   5.021  0.6967  0.0042 -0.2818
 8220WAT     H133586  -0.032   7.066   4.974  0.9314 -1.2696  0.4919
 8220WAT     H233587   0.101   7.096   4.976  0.8683 -0.9711  0.2063
 8220WAT    EPW33588   0.030   7.100   5.008 -0.0713 -0.1137  0.1492
 8221WAT      O33589   3.654   7.294   6.625 -0.3612 -0.3350  0.2339
 8221WAT     H133590   3.721   7.259   6.581  0.3594 -0.8212  1.6605
 8221WAT     H233591   3.654   7.377   6.600  0.8054 -0.3160  0.2534
 8221WAT    EPW33592   3.664   7.301   6.614  1.1899  0.6166 -0.1919
 8222WAT      O33593   2.700   4.028   0.260 -0.4243  0.6373 -0.2103
 8222WAT     H133594   2.663   3.954   0.288 -0.5126  1.4892  2.1557
 8222WAT     H233595   2.667   4.088   0.313  2.3117  1.8496  0.2833
 8222WAT    EPW33596   2.689   4.026   0.272  0.3736  0.5415 -0.2036
 8223WAT      O33597   6.936   2.049   4.470  0.1420 -0.3245 -0.5906
 8223WAT     H133598   6.933   2.115   4.413 -0.7650 -0.1923 -0.4061
 8223WAT     H233599   6.925   1.979   4.420 -2.4782 -0.1184 -0.4510
 8223WAT    EPW33600   6.934   2.049   4.454  0.0374 -0.1036  0.5558
 8224WAT      O33601   2.921   0.620   3.400  0.1057  0.1135  0.3860
 8224WAT     H133602   2.947   0.543   3.431  1.0296  0.2114 -0.1156
 8224WAT     H233603   2.996   0.664   3.391 -0.2982  0.6303 -0.4858
 8224WAT    EPW33604   2.936   0.615   3.404 -0.5267  0.3059  0.4497
 8225WAT      O33605   0.290   5.122   1.563  0.0137  0.4880 -0.1359
 8225WAT     H133606   0.370   5.090   1.549 -0.1081 -0.0118  0.2608
 8225WAT     H233607   0.306   5.195   1.609  0.2991  1.0979 -1.1648
 8225WAT    EPW33608   0.304   5.128   1.568 -0.0368  0.0977 -0.0628
 8226WAT      O33609   5.883   1.006   5.063 -0.0348  0.2995  0.0621
 8226WAT     H133610   5.932   1.075   5.042  0.8205 -0.6673 -1.3225
 8226WAT     H233611   5.891   1.001   5.150  1.7585  0.6058 -0.0453
 8226WAT    EPW33612   5.891   1.016   5.073  0.1648  0.4049  0.5359
 8227WAT      O33613   2.061   3.730   5.090  0.1770  0.1389  0.3302
 8227WAT     H133614   2.115   3.796   5.072  0.1007  0.1636  0.1984
 8227WAT     H233615   2.108   3.680   5.144  0.2377  0.2951  0.4228
 8227WAT    EPW33616   2.076   3.732   5.096  0.4652  0.3798 -0.0241
 8228WAT      O33617   1.080   6.384   4.963 -0.5066  0.0901 -0.5594
 8228WAT     H133618   1.098   6.452   5.015 -0.8127  0.3971 -0.8469
 8228WAT     H233619   1.132   6.321   4.993  0.6914  0.7963 -1.0612
 8228WAT    EPW33620   1.090   6.385   4.975  0.0959  0.5137 -0.8107
 8229WAT      O33621   5.640   0.730   6.560 -0.2978 -0.3159 -0.3487
 8229WAT     H133622   5.691   0.792   6.527 -0.6338 -0.1668 -0.6009
 8229WAT     H233623   5.616   0.684   6.490  0.4958 -1.1544 -0.0845
 8229WAT    EPW33624   5.644   0.733   6.544  0.0289  0.0065 -0.2064
 8230WAT      O33625   3.831   7.315   1.807  0.1649 -0.5110 -0.0301
 8230WAT     H133626   3.855   7.233   1.791 -0.3886 -0.6152 -0.3433
 8230WAT     H233627   3.747   7.309   1.829  0.4091 -0.1518  1.0812
 8230WAT    EPW33628   3.822   7.302   1.808  0.0192 -0.2944  0.2111
 8231WAT      O33629   3.833   5.779   1.720  0.0549  0.2735  0.6242
 8231WAT     H133630   3.914   5.753   1.739 -0.5985 -1.0764  1.7787
 8231WAT     H233631   3.793   5.779   1.798 -0.3022  3.9688  0.6134
 8231WAT    EPW33632   3.839   5.775   1.735  0.9590  0.2956  0.2201
 8232WAT      O33633   5.315   0.150   4.377 -0.1492  0.0398  0.2265
 8232WAT     H133634   5.321   0.112   4.299 -1.9288 -0.3043  0.1989
 8232WAT     H233635   5.324   0.083   4.433  0.1063  0.1187  0.2786
 8232WAT    EPW33636   5.317   0.134   4.374 -0.3693  0.3207  0.2406
 8233WAT      O33637   4.533   6.360   4.610  0.8913  0.2799  0.6385
 8233WAT     H133638   4.500   6.422   4.559 -0.6574 -1.7906 -1.0928
 8233WAT     H233639   4.513   6.286   4.568  1.2252 -1.5021  3.3333
 8233WAT    EPW33640   4.525   6.358   4.596  0.1822  0.1664  1.3278
 8234WAT      O33641   7.140   6.725   0.348 -0.3075 -0.5578  0.3473
 8234WAT     H133642   7.221   6.727   0.314 -0.5138  1.0068 -0.1477
 8234WAT     H233643   7.099   6.664   0.301  0.4615 -1.0825  0.3354
 8234WAT    EPW33644   7.146   6.716   0.336 -0.0084 -1.0302 -0.0022
 8235WAT      O33645   4.465   5.783   7.121  0.9626 -0.3067 -0.3968
 8235WAT     H133646   4.451   5.868   7.136  1.9710 -0.0597 -0.7569
 8235WAT     H233647   4.455   5.776   7.035  0.5630 -0.6213 -0.3249
 8235WAT    EPW33648   4.461   5.795   7.110  0.3564  0.5626 -0.0940
 8236WAT      O33649   2.793   0.031   0.133 -0.3460  0.2201 -0.5450
 8236WAT     H133650   2.741   0.101   0.139  0.7735  1.0938 -0.6701
 8236WAT     H233651   2.833   0.029   0.210 -1.2413 -1.0222 -0.0858
 8236WAT    EPW33652   2.791   0.041   0.145  0.2940  0.1228  0.2165
 8237WAT      O33653   1.641   2.994   5.065  0.0171 -0.7313 -0.0436
 8237WAT     H133654   1.604   3.002   5.143  0.9555  1.6645  0.2235
 8237WAT     H233655   1.597   3.050   5.015  1.2909 -0.0649 -0.4651
 8237WAT    EPW33656   1.629   3.003   5.069 -0.5911  0.0843 -0.1019
 8238WAT      O33657   5.842   1.169   7.032 -0.5071 -0.1971  0.1973
 8238WAT     H133658   5.783   1.111   7.059 -1.3023 -0.4370 -1.8925
 8238WAT     H233659   5.817   1.187   6.951  2.6613 -0.8360 -1.0686
 8238WAT    EPW33660   5.830   1.163   7.024  0.4195  0.1624 -0.5116
 8239WAT      O33661   6.256   4.802   2.084 -0.5105 -0.5218  0.2475
 8239WAT     H133662   6.312   4.867   2.067 -0.8470 -0.6450 -1.4832
 8239WAT     H233663   6.279   4.776   2.164 -0.7177  2.0755  1.2771
 8239WAT    EPW33664   6.267   4.808   2.093  0.8074 -0.3084 -0.1066
 8240WAT      O33665   3.077   2.390   2.809 -0.5254  0.6778 -0.3662
 8240WAT     H133666   3.163   2.403   2.804 -0.4416 -0.0665 -0.9230
 8240WAT     H233667   3.068   2.345   2.883 -0.1150 -1.6008 -1.6098
 8240WAT    EPW33668   3.089   2.386   2.819 -0.0256  0.1359  0.2591
 8241WAT      O33669   1.223   7.201   0.898 -0.0684 -0.0221  0.4307
 8241WAT     H133670   1.195   7.144   0.958 -1.4540  0.1103 -0.0628
 8241WAT     H233671   1.292   7.240   0.937  0.4232 -1.4711  1.0613
 8241WAT    EPW33672   1.229   7.199   0.913  0.6517  0.0732 -0.0656
 8242WAT      O33673   0.912   1.021   4.026  0.6652  0.0183  0.2078
 8242WAT     H133674   0.951   1.028   4.104 -0.4421  0.7755  0.7247
 8242WAT     H233675   0.832   0.993   4.046  0.0144  1.2536 -0.5440
 8242WAT    EPW33676   0.906   1.018   4.041 -0.2709  0.9878  0.3609
 8243WAT      O33677   6.315   0.412   4.645 -0.4184 -0.4156 -0.1369
 8243WAT     H133678   6.318   0.363   4.572 -0.7377  0.0949 -0.5004
 8243WAT     H233679   6.230   0.415   4.664 -0.2858 -1.0300  0.5984
 8243WAT    EPW33680   6.303   0.405   4.637 -0.0299  0.3266 -0.0342
 8244WAT      O33681   7.115   6.435   6.741 -0.4227 -0.0998 -0.4907
 8244WAT     H133682   7.099   6.381   6.808 -0.0537  0.0434 -0.2881
 8244WAT     H233683   7.078   6.394   6.673 -2.1506  0.4689  0.0370
 8244WAT    EPW33684   7.107   6.421   6.741  0.1016  0.3914 -0.3986
 8245WAT      O33685   2.659   6.682   5.875 -0.1696  0.4027 -0.3224
 8245WAT     H133686   2.675   6.622   5.935  1.6748  2.0240  0.9276
 8245WAT     H233687   2.738   6.708   5.849 -0.9092  1.2245 -1.9318
 8245WAT    EPW33688   2.673   6.677   5.880  0.1043  0.7626  0.4582
 8246WAT      O33689   5.607   3.613   5.364  0.5276 -0.3007 -0.2157
 8246WAT     H133690   5.636   3.623   5.282  0.4763  2.0011 -0.0066
 8246WAT     H233691   5.546   3.551   5.356  0.7459 -0.3589 -1.8577
 8246WAT    EPW33692   5.603   3.605   5.351 -0.3406  0.6445  0.2202
 8247WAT      O33693   2.558   5.272   7.585  0.2879  0.2096  0.2665
 8247WAT     H133694   2.638   5.244   7.609  0.0752 -1.8559 -1.1452
 8247WAT     H233695   2.505   5.219   7.629 -0.3281  1.3513  0.9325
 8247WAT    EPW33696   2.562   5.260   7.595  0.4491  0.0137  0.4451
 8248WAT      O33697   6.414   6.521   4.342 -0.3512 -0.5876 -0.0417
 8248WAT     H133698   6.354   6.461   4.363  0.0300 -0.6646  0.8844
 8248WAT     H233699   6.435   6.501   4.260 -2.2487  0.0178 -0.7209
 8248WAT    EPW33700   6.409   6.509   4.333  0.3450 -0.2126 -0.1409
 8249WAT      O33701   3.468   0.066   0.176  0.5820  0.1176 -0.0397
 8249WAT     H133702   3.463   0.153   0.166 -1.4421  0.0367 -0.1812
 8249WAT     H233703   3.517   0.041   0.109 -0.9211  0.9603 -1.5467
 8249WAT    EPW33704   3.474   0.075   0.164 -0.0761  0.2143 -0.7144
 8250WAT      O33705   4.648   4.725   6.688 -0.1663 -0.1751  0.0644
 8250WAT     H133706   4.701   4.673   6.734  0.1112  0.4099  0.4106
 8250WAT     H233707   4.699   4.753   6.623 -0.5581 -1.0057 -0.6192
 8250WAT    EPW33708   4.664   4.721   6.685 -0.0257  0.5989  0.1946
 8251WAT      O33709   4.338   6.043   2.857  0.3240 -0.0340  0.5119
 8251WAT     H133710   4.393   5.976   2.843  0.6956  0.3314  0.2153
 8251WAT     H233711   4.306   6.026   2.936  0.5312 -0.4831  0.5066
 8251WAT    EPW33712   4.341   6.031   2.866 -0.0735 -0.2442  0.0717
 8252WAT      O33713   6.632   0.258   3.775  0.5653  0.6086 -0.3122
 8252WAT     H133714   6.596   0.267   3.696 -0.0829 -0.2307 -0.1322
 8252WAT     H233715   6.714   0.234   3.758  0.5936  0.9868 -0.7276
 8252WAT    EPW33716   6.639   0.256   3.761 -0.4427 -0.4323  0.0534
 8253WAT      O33717   2.073   3.330   5.883 -0.0281 -0.3572 -0.5938
 8253WAT     H133718   2.047   3.315   5.965  0.1033  0.8890 -0.2901
 8253WAT     H233719   2.005   3.305   5.835 -1.4502  1.8170  0.1179
 8253WAT    EPW33720   2.059   3.324   5.888 -0.2024 -0.3694  0.8337
 8254WAT      O33721   2.178   2.747   3.892  0.0061 -0.6029 -0.5317
 8254WAT     H133722   2.145   2.815   3.937  0.0625 -0.1509 -1.1563
 8254WAT     H233723   2.178   2.682   3.950 -1.0810 -0.3608 -0.2269
 8254WAT    EPW33724   2.173   2.748   3.907  0.6566  0.0158  0.4538
 8255WAT      O33725   5.292   7.240   6.486 -0.1598 -0.0938  0.6844
 8255WAT     H133726   5.294   7.252   6.400 -0.9218  0.7831  0.7732
 8255WAT     H233727   5.208   7.226   6.503 -0.2164  0.9969  1.4279
 8255WAT    EPW33728   5.280   7.239   6.476  0.4315  0.3742 -0.8702
 8256WAT      O33729   1.142   2.257   7.340  0.5005 -0.8685  0.1148
 8256WAT     H133730   1.126   2.187   7.389  2.5164 -1.2528  0.3279
 8256WAT     H233731   1.144   2.225   7.259 -1.4183 -0.4928 -0.1165
 8256WAT    EPW33732   1.140   2.242   7.335  0.3136 -0.1051 -0.3076
 8257WAT      O33733   3.532   5.747   7.019  0.1286 -0.0345 -0.0998
 8257WAT     H133734   3.499   5.826   7.039  1.4921  0.3492  0.7956
 8257WAT     H233735   3.617   5.764   7.007  0.4611 -1.3949  0.2392
 8257WAT    EPW33736   3.540   5.761   7.021 -0.6240 -0.0873  0.1854
 8258WAT      O33737   2.630   0.127   4.216  0.0134  0.1395  0.4356
 8258WAT     H133738   2.555   0.091   4.243  0.0229  0.3843  0.8053
 8258WAT     H233739   2.659   0.072   4.155  2.5738 -3.3975  4.2466
 8258WAT    EPW33740   2.623   0.114   4.211 -0.1753  0.6337  0.5983
 8259WAT      O33741   6.512   3.245   0.156 -0.0909  0.3007 -0.0914
 8259WAT     H133742   6.525   3.159   0.148 -0.1173  0.0259  2.2254
 8259WAT     H233743   6.527   3.276   0.076  1.2290 -1.7028 -0.6710
 8259WAT    EPW33744   6.516   3.237   0.143 -0.2218 -0.4570  0.1483
 8260WAT      O33745   1.469   1.481   1.170  0.5779 -0.2336 -0.4099
 8260WAT     H133746   1.443   1.559   1.139 -0.9695  0.0564  1.4626
 8260WAT     H233747   1.501   1.441   1.099 -0.8447  1.1756 -1.9456
 8260WAT    EPW33748   1.470   1.487   1.155 -0.1889 -0.2696  0.5032
 8261WAT      O33749   0.985   4.509   1.473  0.2141  0.4194 -0.3705
 8261WAT     H133750   1.014   4.436   1.511 -0.7076  0.5549  0.6127
 8261WAT     H233751   1.047   4.568   1.492  0.3374  0.2004 -0.0960
 8261WAT    EPW33752   0.999   4.507   1.481  0.2208 -0.0087  0.6397
 8262WAT      O33753   3.985   0.786   4.029 -0.0109 -0.3708 -0.2694
 8262WAT     H133754   4.006   0.856   4.077  2.0650 -0.6385 -0.6836
 8262WAT     H233755   3.925   0.816   3.974  2.1342  1.6620 -1.6815
 8262WAT    EPW33756   3.980   0.801   4.028  0.6192  0.2061  0.1708
 8263WAT      O33757   1.965   3.913   0.669 -0.4456  0.5379 -0.3206
 8263WAT     H133758   2.022   3.873   0.723 -1.3055  0.3130  0.4492
 8263WAT     H233759   1.935   3.848   0.619 -1.6600  0.2157  0.7669
 8263WAT    EPW33760   1.969   3.898   0.670 -0.3087 -0.5565  0.5282
 8264WAT      O33761   2.663   7.470   1.251  0.0536  0.1205 -0.3504
 8264WAT     H133762   2.667   7.442   1.333  0.6816  0.8331 -0.1268
 8264WAT     H233763   2.704   7.408   1.206 -1.2220 -0.8080 -0.2916
 8264WAT    EPW33764   2.670   7.457   1.256 -0.5301  0.2456 -0.3425
 8265WAT      O33765   6.611   5.898   0.706 -0.6041  0.3342 -0.0092
 8265WAT     H133766   6.566   5.907   0.633  0.7828  1.2116 -0.7931
 8265WAT     H233767   6.656   5.972   0.712  1.4152 -0.8382  0.2298
 8265WAT    EPW33768   6.611   5.910   0.696  0.1733 -0.0948  0.1057
 8266WAT      O33769   3.561   1.477   5.507  0.2255  0.4710  0.0412
 8266WAT     H133770   3.583   1.558   5.530 -0.9634  0.5869  0.8296
 8266WAT     H233771   3.531   1.442   5.581  0.4500 -0.6012 -0.3548
 8266WAT    EPW33772   3.560   1.484   5.521 -0.1385  0.1315  0.3458
 8267WAT      O33773   7.357   4.972   1.546 -0.3739 -0.3647 -0.3119
 8267WAT     H133774   7.358   5.007   1.467  0.3144 -1.5749 -0.8618
 8267WAT     H233775   7.317   5.032   1.595  1.0140  1.2933 -1.1355
 8267WAT    EPW33776   7.351   4.986   1.542  0.1322  0.2050 -0.2061
 8268WAT      O33777   0.448   5.426   2.018  0.2022  0.0012  0.3755
 8268WAT     H133778   0.501   5.477   1.971 -0.5034 -0.5339 -1.0741
 8268WAT     H233779   0.476   5.345   2.000 -2.3242 -0.4864 -2.2367
 8268WAT    EPW33780   0.460   5.422   2.008 -1.2079 -0.3011 -0.1199
 8269WAT      O33781   3.597   3.399   0.442 -0.0277  1.1387  0.2147
 8269WAT     H133782   3.650   3.329   0.448 -1.6120 -0.3347 -1.5474
 8269WAT     H233783   3.599   3.418   0.357 -4.5059 -0.9154 -0.5991
 8269WAT    EPW33784   3.605   3.391   0.430 -0.0683 -0.2142 -0.6655
 8270WAT      O33785   0.629   4.754   6.927 -0.4508 -0.3448  0.3210
 8270WAT     H133786   0.651   4.677   6.962 -1.0238 -0.5715  0.1989
 8270WAT     H233787   0.547   4.741   6.900 -0.4406  0.2120  0.0126
 8270WAT    EPW33788   0.620   4.740   6.928 -0.4022  0.0688  0.1150
 8271WAT      O33789   2.993   0.787   0.098 -0.5565  0.0946  0.2330
 8271WAT     H133790   3.042   0.781   0.026 -0.2952  1.4588  0.2801
 8271WAT     H233791   2.982   0.873   0.109 -3.0038 -0.1526  0.2062
 8271WAT    EPW33792   2.999   0.799   0.089 -0.4837  0.6074 -0.7065
 8272WAT      O33793   4.266   1.650   2.734 -0.0875 -0.3314 -0.0074
 8272WAT     H133794   4.221   1.660   2.660 -0.8646  0.2248  0.5257
 8272WAT     H233795   4.217   1.594   2.780 -0.8011  1.0541  0.9924
 8272WAT    EPW33796   4.252   1.643   2.730 -0.9328  0.1378 -0.4205
 8273WAT      O33797   4.026   0.840   5.074 -0.0914  0.0015 -0.2860
 8273WAT     H133798   4.044   0.856   5.157  0.2081  0.4300 -0.4315
 8273WAT     H233799   3.940   0.852   5.068 -0.3872 -1.5201  0.2946
 8273WAT    EPW33800   4.016   0.844   5.085  0.1979 -0.2674  0.1350
 8274WAT      O33801   6.847   3.329   0.032 -0.0644 -0.1333 -0.2027
 8274WAT     H133802   6.813   3.406   0.055  0.4459 -0.2714  1.0647
 8274WAT     H233803   6.784   3.293  -0.016 -1.2473  0.1151  1.0998
 8274WAT    EPW33804   6.833   3.335   0.028  0.5723 -0.9545 -0.3582
 8275WAT      O33805   2.883   2.147   7.024 -0.4941 -0.3888 -0.5129
 8275WAT     H133806   2.878   2.079   6.970  2.2678 -1.6906  0.7118
 8275WAT     H233807   2.959   2.137   7.064 -0.7806  2.4915  1.0455
 8275WAT    EPW33808   2.893   2.136   7.022 -0.0509  0.3939  0.2766
 8276WAT      O33809   3.139   4.872   6.344 -0.4049 -0.0928  0.0247
 8276WAT     H133810   3.091   4.813   6.387 -0.2103  0.2771  0.7618
 8276WAT     H233811   3.107   4.869   6.263 -0.2984 -1.3145  0.0077
 8276WAT    EPW33812   3.127   4.863   6.339 -0.0980 -0.5254  0.5780
 8277WAT      O33813   4.954   3.970   1.709 -0.2351 -0.2056  0.2120
 8277WAT     H133814   4.986   4.037   1.663  2.5166 -0.6034  1.3481
 8277WAT     H233815   4.979   3.900   1.664 -0.7179 -0.5335  0.4428
 8277WAT    EPW33816   4.962   3.969   1.696  0.6771  0.4009  0.3029
 8278WAT      O33817   2.774   1.874   5.099  0.2658  0.0735 -0.2612
 8278WAT     H133818   2.733   1.916   5.034  0.3085  1.4329  0.5587
 8278WAT     H233819   2.771   1.790   5.074 -0.5498  0.4572 -1.5558
 8278WAT    EPW33820   2.767   1.868   5.086 -0.0949  0.2939  0.2282
 8279WAT      O33821   3.138   2.637   1.673 -0.2523  0.1040  0.1603
 8279WAT     H133822   3.051   2.633   1.669 -0.3227  0.1872  1.2490
 8279WAT     H233823   3.156   2.716   1.641 -0.5480 -0.0469 -0.3896
 8279WAT    EPW33824   3.128   2.648   1.668 -0.4200 -0.1918 -0.2561
 8280WAT      O33825   1.219   7.560   2.767 -0.0886  0.5829 -0.3716
 8280WAT     H133826   1.142   7.540   2.731  0.4515  2.1043 -2.5865
 8280WAT     H233827   1.271   7.493   2.743 -0.0076  1.0517 -1.5923
 8280WAT    EPW33828   1.215   7.547   2.758 -0.2672  0.1082 -0.0637
 8281WAT      O33829   4.151   1.756   5.480  0.3476 -0.6292  0.4560
 8281WAT     H133830   4.171   1.802   5.551 -0.1037 -1.5087  1.1769
 8281WAT     H233831   4.186   1.677   5.496 -0.1558 -0.9742 -0.0975
 8281WAT    EPW33832   4.159   1.751   5.493  0.4739  0.3157  0.4208
 8282WAT      O33833   6.636   4.756   2.747 -0.1153 -0.2185  0.5185
 8282WAT     H133834   6.651   4.822   2.803  0.4846 -0.0271  0.1370
 8282WAT     H233835   6.673   4.687   2.786  1.9034  0.2479 -0.4184
 8282WAT    EPW33836   6.644   4.756   2.761  0.5643 -0.0869  0.7152
 8283WAT      O33837   7.597   6.932   5.892 -0.2832  0.5061  0.2825
 8283WAT     H133838   7.510   6.933   5.887 -0.2254  0.2588 -1.2456
 8283WAT     H233839   7.615   6.850   5.913 -0.3991  0.4003 -0.0264
 8283WAT    EPW33840   7.587   6.920   5.894 -0.0568  0.0875  0.3048
 8284WAT      O33841   6.595   3.901  -0.000  0.6777  0.0130 -0.0100
 8284WAT     H133842   6.672   3.942   0.002  0.1529  1.0255  0.1722
 8284WAT     H233843   6.537   3.966   0.010 -0.1771 -0.8200  0.6123
 8284WAT    EPW33844   6.598   3.916   0.001 -0.6078 -0.0368  0.4991
 8285WAT      O33845   6.267   3.479   3.786  0.4368  0.3687 -0.2778
 8285WAT     H133846   6.214   3.422   3.826  0.6982  0.0929 -0.3261
 8285WAT     H233847   6.298   3.434   3.719  0.5962  0.5896 -0.3515
 8285WAT    EPW33848   6.263   3.464   3.782  0.2310  0.4967 -0.2295
 8286WAT      O33849   0.305   1.004   3.840  0.1983 -0.1024 -0.3607
 8286WAT     H133850   0.310   0.962   3.916  0.8201  1.6454  0.6235
 8286WAT     H233851   0.227   0.982   3.809  0.2484 -1.4422  0.3965
 8286WAT    EPW33852   0.294   0.994   3.846  0.1980  0.7873 -0.4032
 8287WAT      O33853   5.762   1.607   5.352 -0.2263  0.0157  0.2455
 8287WAT     H133854   5.687   1.590   5.309  0.8640 -1.5148 -1.1918
 8287WAT     H233855   5.768   1.693   5.348 -0.8152  0.0186 -1.6610
 8287WAT    EPW33856   5.752   1.617   5.345 -0.0607 -0.0233 -0.0200
 8288WAT      O33857   7.625   7.103   6.288 -0.1777 -1.1216 -0.5863
 8288WAT     H133858   7.668   7.076   6.216 -0.3725 -2.1776 -0.3169
 8288WAT     H233859   7.547   7.067   6.280 -0.8016  0.1879 -0.6914
 8288WAT    EPW33860   7.620   7.094   6.276  0.0644 -0.5718 -0.5905
 8289WAT      O33861   5.529   5.854   6.397 -0.3367  0.0905  0.3179
 8289WAT     H133862   5.478   5.925   6.395  0.8272  0.9945  1.1571
 8289WAT     H233863   5.519   5.824   6.478  1.5632  1.1777  1.0250
 8289WAT    EPW33864   5.520   5.860   6.409 -0.0740  0.1326 -0.2325
 8290WAT      O33865   5.304   1.017   6.073  0.3462  0.0331 -0.1626
 8290WAT     H133866   5.278   1.065   6.142  1.3200  0.8311 -0.3327
 8290WAT     H233867   5.248   1.039   6.011 -0.3043 -0.3976  0.2603
 8290WAT    EPW33868   5.292   1.028   6.074  0.3446 -0.3117  0.0095
 8291WAT      O33869   4.196   6.709   1.402  0.4991 -0.1155 -0.3704
 8291WAT     H133870   4.173   6.641   1.354 -1.3538  0.5475 -0.4925
 8291WAT     H233871   4.232   6.764   1.344 -0.6572  0.1959 -0.8125
 8291WAT    EPW33872   4.198   6.707   1.387 -0.4500 -0.2401  0.0172
 8292WAT      O33873   7.284   5.800   2.360 -0.3429 -0.2919  0.3750
 8292WAT     H133874   7.371   5.804   2.362 -0.1547 -2.7884 -0.1684
 8292WAT     H233875   7.261   5.874   2.321  1.7040 -0.8017 -2.0167
 8292WAT    EPW33876   7.294   5.812   2.355  0.6610  0.4410  0.6848
 8293WAT      O33877   1.707   1.338   7.567  0.5765  0.6739 -0.3061
 8293WAT     H133878   1.785   1.377   7.564  0.8457  0.1167 -0.7378
 8293WAT     H233879   1.703   1.305   7.647  0.4114  1.4400  0.0121
 8293WAT    EPW33880   1.718   1.339   7.578 -0.5118  0.3025 -0.3795
 8294WAT      O33881   6.059   4.270   7.431  0.0580 -0.5894  0.2975
 8294WAT     H133882   6.143   4.291   7.422 -0.5088  2.2616  0.7309
 8294WAT     H233883   6.017   4.340   7.403 -2.1049 -0.5124  3.2143
 8294WAT    EPW33884   6.066   4.283   7.426 -0.6965 -0.9995 -0.7425
 8295WAT      O33885   1.945   0.758   1.408 -0.3190  0.4436  0.2211
 8295WAT     H133886   1.877   0.714   1.375 -0.6475 -0.3686  1.8616
 8295WAT     H233887   1.932   0.839   1.380 -1.8717  0.2610  0.3063
 8295WAT    EPW33888   1.933   0.763   1.399  0.1289  0.2603 -0.2103
 8296WAT      O33889   5.111   5.806   6.659  0.2533 -0.3672 -0.0037
 8296WAT     H133890   5.090   5.728   6.693 -2.1838 -0.8261 -2.1999
 8296WAT     H233891   5.138   5.787   6.579  0.8254  0.9779 -0.1490
 8296WAT    EPW33892   5.112   5.792   6.652 -0.6546  0.5283  0.2486
 8297WAT      O33893   3.242   6.304   5.252  0.0067 -0.3919 -0.0964
 8297WAT     H133894   3.188   6.235   5.251 -3.0819  1.7682  1.6137
 8297WAT     H233895   3.209   6.357   5.192  0.6730  0.7433  0.5117
 8297WAT    EPW33896   3.229   6.301   5.243  0.1715 -0.0785  0.2529
 8298WAT      O33897   0.877   2.088   2.888  0.2318  0.3595  0.2842
 8298WAT     H133898   0.905   2.127   2.961  0.4041 -1.5112  1.2633
 8298WAT     H233899   0.951   2.056   2.853  0.1907  1.4659 -0.8854
 8298WAT    EPW33900   0.892   2.089   2.894  0.3400  0.5623  0.0056
 8299WAT      O33901   6.078   5.862   5.517 -0.1231  0.0081 -0.7050
 8299WAT     H133902   6.116   5.891   5.591  0.4727 -0.2483 -0.9023
 8299WAT     H233903   6.008   5.913   5.508 -1.4461 -1.3167  1.1986
 8299WAT    EPW33904   6.073   5.874   5.527 -0.0357 -0.0136 -0.0114
 8300WAT      O33905   5.626   1.188   1.773  0.2703  0.5593 -0.1584
 8300WAT     H133906   5.563   1.180   1.712  0.1583 -2.1945  0.1838
 8300WAT     H233907   5.624   1.273   1.793 -1.7207  1.0105 -1.8652
 8300WAT    EPW33908   5.616   1.200   1.767  0.2633 -0.1194  0.1864
 8301WAT      O33909   5.975   4.399   6.661 -0.0785  0.1776 -0.3170
 8301WAT     H133910   5.949   4.479   6.682  0.4675 -0.1212  1.6997
 8301WAT     H233911   6.062   4.401   6.670  0.2537  0.0298 -2.8527
 8301WAT    EPW33912   5.984   4.411   6.666 -0.0842 -0.0247 -0.2768
 8302WAT      O33913   6.501   1.736   4.971  0.0196 -0.3418  0.5555
 8302WAT     H133914   6.547   1.684   5.024 -1.0040 -0.3419  1.4730
 8302WAT     H233915   6.427   1.692   4.959 -0.9226  0.9429  1.4667
 8302WAT    EPW33916   6.497   1.722   4.977 -0.2203 -0.2375 -0.1115
 8303WAT      O33917   6.784   1.800   5.158 -0.0129 -0.1098 -0.3944
 8303WAT     H133918   6.843   1.773   5.099  1.2576  1.5020  0.0561
 8303WAT     H233919   6.795   1.745   5.225  3.3066  1.8649  0.9606
 8303WAT    EPW33920   6.794   1.788   5.159 -0.1808 -0.5346  0.7313
 8304WAT      O33921   0.935   1.394   7.499 -0.0366  0.2492 -0.0705
 8304WAT     H133922   0.849   1.409   7.497  0.1530  1.3472 -1.1510
 8304WAT     H233923   0.943   1.316   7.462 -0.6178 -0.2446  0.8053
 8304WAT    EPW33924   0.924   1.385   7.493  0.2561 -0.5412 -0.1507
 8305WAT      O33925   1.918   6.331   3.019 -0.5279 -0.2439  0.9708
 8305WAT     H133926   1.988   6.349   2.970 -1.2690 -0.9679 -0.4111
 8305WAT     H233927   1.869   6.403   3.012 -0.4715 -0.2049  0.9725
 8305WAT    EPW33928   1.921   6.345   3.011  0.0658  0.1119 -0.6467
 8306WAT      O33929   5.438   2.416   3.661 -0.3442  0.1478  0.1064
 8306WAT     H133930   5.438   2.490   3.615  0.4264  0.4544  0.5952
 8306WAT     H233931   5.357   2.412   3.694 -1.8915 -1.4156 -3.3563
 8306WAT    EPW33932   5.426   2.426   3.659  0.3262  0.1397  0.4340
 8307WAT      O33933   2.696   5.633   2.931 -0.3159 -0.5076  0.4179
 8307WAT     H133934   2.703   5.546   2.930 -0.0923 -0.5290 -1.7722
 8307WAT     H233935   2.778   5.661   2.922 -0.4033 -0.0574  0.9266
 8307WAT    EPW33936   2.709   5.625   2.929  0.0635  0.0488  0.5240
 8308WAT      O33937   5.650   1.385   1.975 -0.4371 -0.2861 -0.2504
 8308WAT     H133938   5.642   1.470   1.957 -0.5590 -0.1783  0.3080
 8308WAT     H233939   5.588   1.370   2.034 -0.8640 -0.9222 -0.8435
 8308WAT    EPW33940   5.640   1.396   1.981 -0.3859 -0.6222  0.0491
 8309WAT      O33941   6.461   5.201   3.726  0.2525  0.0521 -0.0123
 8309WAT     H133942   6.542   5.200   3.757  0.1221  0.9448  0.3724
 8309WAT     H233943   6.418   5.252   3.782 -0.1641  1.0397 -1.1846
 8309WAT    EPW33944   6.467   5.208   3.739  0.2015  0.0322 -0.1573
 8310WAT      O33945   3.912   7.402   7.244  0.7769 -0.1499 -0.1375
 8310WAT     H133946   3.946   7.394   7.324 -1.5364  0.4244  0.9938
 8310WAT     H233947   3.848   7.343   7.242  1.8789 -1.3920 -2.2814
 8310WAT    EPW33948   3.907   7.392   7.255 -0.1302 -0.0742 -0.5296
 8311WAT      O33949   0.199   4.368   4.383 -0.6098  0.0778 -0.0596
 8311WAT     H133950   0.237   4.406   4.452 -1.2148 -0.2762  0.4873
 8311WAT     H233951   0.222   4.284   4.392 -0.1264  0.1381 -0.6825
 8311WAT    EPW33952   0.208   4.361   4.395  0.2051 -0.2887  0.2864
 8312WAT      O33953   1.271   6.899   1.726 -0.1945  0.2094 -0.0918
 8312WAT     H133954   1.272   6.857   1.802 -1.6052 -0.1534 -0.2475
 8312WAT     H233955   1.292   6.837   1.668 -0.9193  0.0356 -0.1771
 8312WAT    EPW33956   1.274   6.883   1.728  0.0142 -0.0096 -0.4889
 8313WAT      O33957   7.464   3.837   1.680 -0.3195  0.5171 -0.0540
 8313WAT     H133958   7.539   3.830   1.636 -0.4709 -2.0686 -0.0191
 8313WAT     H233959   7.413   3.777   1.643 -1.5816  0.5873  1.4868
 8313WAT    EPW33960   7.468   3.827   1.668 -0.4056 -0.0893 -0.1681
 8314WAT      O33961   4.957   4.845   7.531 -0.0635 -0.2471  0.5825
 8314WAT     H133962   4.996   4.922   7.516  1.2797  0.1383  4.6826
 8314WAT     H233963   4.872   4.866   7.530  0.1641  0.7424 -0.6299
 8314WAT    EPW33964   4.950   4.860   7.529  0.0645  0.2513 -0.2667
 8315WAT      O33965   1.488   3.959   2.496  0.2188  0.9010  0.2401
 8315WAT     H133966   1.417   4.009   2.490 -1.7610 -1.8548 -3.2464
 8315WAT     H233967   1.457   3.879   2.512  2.6521 -0.2250 -0.1429
 8315WAT    EPW33968   1.473   3.955   2.497  0.0410  0.4013  0.3448
 8316WAT      O33969   4.470   6.927   7.503 -0.0591  0.3711  0.0440
 8316WAT     H133970   4.494   6.979   7.437  0.8206 -0.0651 -0.0004
 8316WAT     H233971   4.393   6.895   7.478  0.1837  0.3547 -0.6909
 8316WAT    EPW33972   4.462   6.930   7.490  0.1827  0.2653 -0.0370
 8317WAT      O33973   2.613   4.503   2.631  0.5396 -0.5344  0.0281
 8317WAT     H133974   2.567   4.572   2.656  0.6727 -0.1877 -0.6603
 8317WAT     H233975   2.657   4.531   2.562  1.9796 -0.8014  0.8142
 8317WAT    EPW33976   2.612   4.517   2.624 -0.3407 -0.1310  1.0231
 8318WAT      O33977   3.149   0.712   3.304  0.1299 -0.1240 -0.1323
 8318WAT     H133978   3.195   0.771   3.350 -2.0655  0.2379  1.7526
 8318WAT     H233979   3.121   0.757   3.235  0.1155  0.4894  0.2657
 8318WAT    EPW33980   3.152   0.727   3.301  0.1106  0.7671 -0.2020
 8319WAT      O33981   4.603   4.798   3.194  0.5119  0.1513  0.4249
 8319WAT     H133982   4.532   4.803   3.244  0.2200  3.0512 -0.0845
 8319WAT     H233983   4.653   4.739   3.234 -1.2031 -0.2632  2.0795
 8319WAT    EPW33984   4.600   4.790   3.207 -0.4343  0.1578  0.8129
 8320WAT      O33985   0.169   1.333   2.112 -0.2422 -0.0754 -0.3545
 8320WAT     H133986   0.243   1.365   2.077 -1.0974  1.9501 -0.4417
 8320WAT     H233987   0.127   1.300   2.043 -0.4895  0.9852 -0.7264
 8320WAT    EPW33988   0.174   1.333   2.096 -0.5106  0.3773 -0.5207
 8321WAT      O33989   0.745   6.680   6.925  0.1751  0.2782 -0.4575
 8321WAT     H133990   0.766   6.631   6.994 -2.2226 -0.9142 -0.4613
 8321WAT     H233991   0.782   6.757   6.942  1.0161 -0.4640  1.3340
 8321WAT    EPW33992   0.754   6.684   6.937  0.6117  0.9165  0.5449
 8322WAT      O33993   2.624   0.821   5.426 -0.3404  0.6529 -0.1732
 8322WAT     H133994   2.668   0.856   5.493  0.5156 -1.5231  0.4673
 8322WAT     H233995   2.616   0.737   5.448  0.1812 -0.2113 -2.9007
 8322WAT    EPW33996   2.629   0.814   5.439 -0.2431 -0.7367 -0.2829
 8323WAT      O33997   2.593   2.648   1.538 -0.2556  0.2108  0.5006
 8323WAT     H133998   2.567   2.614   1.614  0.2957  1.7534  1.4314
 8323WAT     H233999   2.599   2.579   1.486  1.4990 -1.2571  2.4670
 8323WAT    EPW34000   2.590   2.633   1.542  0.4238 -0.5373 -0.0166
 8324WAT      O34001   2.651   3.783   7.577  0.1719 -0.3709 -0.0828
 8324WAT     H134002   2.722   3.762   7.531 -0.2624  0.2633 -1.0615
 8324WAT     H234003   2.668   3.750   7.656  1.5460 -0.2549 -0.3049
 8324WAT    EPW34004   2.664   3.775   7.582  0.6538 -0.0913  0.1803
 8325WAT      O34005   6.948   5.013   7.257  0.1799  0.1175  0.5230
 8325WAT     H134006   6.868   4.994   7.225  1.0703 -0.0143 -1.8500
 8325WAT     H234007   6.931   5.047   7.335 -2.2376  0.2972  0.0139
 8325WAT    EPW34008   6.934   5.015   7.264  0.1292  0.3944  0.2767
 8326WAT      O34009   4.705   2.724   7.112  0.8773 -0.0877 -0.3474
 8326WAT     H134010   4.657   2.752   7.179  0.7384  1.3005 -0.9772
 8326WAT     H234011   4.751   2.795   7.089  1.3809 -0.7046 -1.3285
 8326WAT    EPW34012   4.705   2.739   7.119 -0.1877  0.1178  1.0115
 8327WAT      O34013   2.923   0.070   7.312  0.8252 -0.4911  0.9113
 8327WAT     H134014   2.986   0.014   7.335 -0.2763 -2.5048 -0.7049
 8327WAT     H234015   2.850   0.032   7.339 -0.0099 -0.1797 -0.7649
 8327WAT    EPW34016   2.922   0.056   7.319  0.1914  0.0146 -0.1741
 8328WAT      O34017   5.063   5.588   6.120 -0.3005  0.1610 -0.0090
 8328WAT     H134018   5.067   5.638   6.048 -0.3498 -0.5974 -0.5515
 8328WAT     H234019   5.028   5.513   6.091 -0.7319  0.0017  0.9009
 8328WAT    EPW34020   5.058   5.584   6.105 -0.2618 -0.0501  1.1842
 8329WAT      O34021   3.475   5.531   7.380 -1.0280 -0.7093  0.2040
 8329WAT     H134022   3.408   5.498   7.335  0.2988 -1.3512 -1.4444
 8329WAT     H234023   3.545   5.501   7.337  0.3250  2.5591 -0.1572
 8329WAT    EPW34024   3.476   5.522   7.367  0.1548  0.0296 -0.4776
 8330WAT      O34025   1.231   6.392   7.486  0.5422 -0.1888 -0.1073
 8330WAT     H134026   1.263   6.377   7.406 -0.0570  0.1759 -0.4225
 8330WAT     H234027   1.161   6.341   7.490 -0.1193  0.6815 -0.2726
 8330WAT    EPW34028   1.225   6.382   7.475 -0.5895  0.8274  0.7607
 8331WAT      O34029   3.778   6.837   5.170 -0.1190  0.5699 -0.1521
 8331WAT     H134030   3.692   6.836   5.181 -0.1756 -1.6039 -0.4429
 8331WAT     H234031   3.787   6.845   5.083 -0.0883 -0.6352 -0.2752
 8331WAT    EPW34032   3.767   6.838   5.158  0.1566  0.3218 -0.2229
 8332WAT      O34033   3.300   1.951   3.390 -0.3218  0.3434  0.3303
 8332WAT     H134034   3.362   1.966   3.450 -0.2687  0.4429  0.2505
 8332WAT     H234035   3.326   1.876   3.353  0.0326  0.6616 -0.0627
 8332WAT    EPW34036   3.313   1.942   3.394  0.2726  0.4286 -0.0311
 8333WAT      O34037   2.890   1.388   2.142 -0.1761  0.0643 -0.0596
 8333WAT     H134038   2.878   1.355   2.221  1.5551  0.0055  0.2175
 8333WAT     H234039   2.871   1.473   2.152 -2.6901 -0.3891 -0.3057
 8333WAT    EPW34040   2.886   1.396   2.155 -0.6737  0.3921 -0.0004
 8334WAT      O34041   4.875   7.023   1.930  0.2673  0.4218  0.0715
 8334WAT     H134042   4.829   7.094   1.948 -1.6542 -0.9184  0.7946
 8334WAT     H234043   4.892   6.988   2.008  0.5853 -0.2626 -0.2864
 8334WAT    EPW34044   4.871   7.028   1.944  0.1292 -0.3400 -0.8243
 8335WAT      O34045   6.509   5.766   1.349  0.0954 -0.4865 -0.1907
 8335WAT     H134046   6.579   5.768   1.297  0.9964  0.3999  0.9682
 8335WAT     H234047   6.475   5.846   1.342  0.2557 -0.3357  0.5712
 8335WAT    EPW34048   6.515   5.778   1.340  0.3167 -0.5433  0.0708
 8336WAT      O34049   2.121   2.732   2.811 -0.1753 -0.7044 -0.1397
 8336WAT     H134050   2.147   2.649   2.811 -1.1854 -1.0346 -0.3282
 8336WAT     H234051   2.092   2.744   2.892  1.4902 -0.0154  0.3968
 8336WAT    EPW34052   2.121   2.722   2.823  0.5521 -0.5368  0.0846
 8337WAT      O34053   3.123   7.381   3.425 -0.5367 -0.2451 -0.0640
 8337WAT     H134054   3.107   7.342   3.502 -0.9525 -3.3459 -1.5491
 8337WAT     H234055   3.210   7.385   3.423 -0.5490  0.7168  0.9367
 8337WAT    EPW34056   3.134   7.376   3.436  0.1798  0.6345 -0.5615
 8338WAT      O34057   6.941   2.120   1.372 -0.7449 -0.2937  0.6372
 8338WAT     H134058   6.932   2.034   1.387 -0.8738 -0.2423  0.8592
 8338WAT     H234059   6.884   2.156   1.427 -2.9856 -0.1837 -1.5805
 8338WAT    EPW34060   6.931   2.113   1.382  0.1689 -0.8199  0.3987
 8339WAT      O34061   0.261   3.149   1.013  0.2166 -0.2143 -0.6016
 8339WAT     H134062   0.277   3.230   0.985 -2.1475 -0.0089 -1.6065
 8339WAT     H234063   0.283   3.099   0.946  2.1297 -0.5197  0.1883
 8339WAT    EPW34064   0.267   3.154   0.999  0.4106  0.2649  0.0999
 8340WAT      O34065   0.740   1.117   3.081  0.0456  0.2709 -0.0064
 8340WAT     H134066   0.672   1.167   3.103 -0.4485 -0.0504 -0.7498
 8340WAT     H234067   0.809   1.168   3.095 -0.4027  0.8930 -0.0199
 8340WAT    EPW34068   0.740   1.132   3.086  0.4011 -0.5289  0.3515
 8341WAT      O34069   2.525   5.333   1.076  0.3466  0.3004 -0.4405
 8341WAT     H134070   2.557   5.255   1.096  0.9537  0.9038  1.1211
 8341WAT     H234071   2.542   5.342   0.991 -1.0242 -1.8241 -1.0122
 8341WAT    EPW34072   2.532   5.323   1.067 -0.5321  0.0479  0.7938
 8342WAT      O34073   6.342   0.903   5.458  0.4217  0.1736 -0.1027
 8342WAT     H134074   6.401   0.967   5.444  0.2264  1.2540  3.1031
 8342WAT     H234075   6.280   0.943   5.505 -0.5156 -2.0075  0.6299
 8342WAT    EPW34076   6.342   0.918   5.463 -0.2939 -0.5232  0.8029
 8343WAT      O34077   5.763   6.885   1.061  0.0171  0.6952 -0.7888
 8343WAT     H134078   5.747   6.950   1.005  0.7635  0.9616 -0.6902
 8343WAT     H234079   5.792   6.926   1.132 -2.4712  0.5141  0.4455
 8343WAT    EPW34080   5.765   6.901   1.063 -0.8735  0.0596  0.3141
 8344WAT      O34081   0.369   2.033   0.198 -0.0262 -0.2246  0.1316
 8344WAT     H134082   0.434   1.995   0.242 -0.5876 -1.3242  0.0441
 8344WAT     H234083   0.395   2.030   0.115  0.8870  1.5563  0.3150
 8344WAT    EPW34084   0.382   2.027   0.192  0.2571  0.2430  0.1019
 8345WAT      O34085   0.872   0.751   5.404 -0.1646  0.3050  0.3029
 8345WAT     H134086   0.956   0.774   5.392 -0.5950  1.1701 -1.3621
 8345WAT     H234087   0.862   0.683   5.351 -0.2982 -0.4214  1.2324
 8345WAT    EPW34088   0.883   0.745   5.394 -0.0339 -0.1422  0.1161
 8346WAT      O34089   4.345  -0.004   1.694  0.2033  0.0512  0.4268
 8346WAT     H134090   4.397   0.066   1.695 -0.5131  0.6380 -0.6560
 8346WAT     H234091   4.268   0.028   1.670 -0.3275 -1.0055  0.6436
 8346WAT    EPW34092   4.341   0.011   1.690  0.3674  0.4966  0.7471
 8347WAT      O34093   5.455   5.863   2.217  0.2054  0.3946 -0.6697
 8347WAT     H134094   5.376   5.892   2.192  0.0625  0.6461  0.0516
 8347WAT     H234095   5.437   5.813   2.286  0.8688  2.7302  1.3508
 8347WAT    EPW34096   5.440   5.860   2.224 -0.1770 -0.1034  0.3133
 8348WAT      O34097   3.963   0.196   2.593 -0.0456  0.1620 -0.0382
 8348WAT     H134098   4.013   0.137   2.634 -0.0209  0.0826 -0.1831
 8348WAT     H234099   4.011   0.220   2.524  0.1906  0.7900  0.3411
 8348WAT    EPW34100   3.977   0.191   2.589 -0.4835 -0.1014  0.2579
 8349WAT      O34101   2.034   6.664   2.604 -0.5801 -0.2131  0.0947
 8349WAT     H134102   1.986   6.592   2.602 -0.0064 -0.6027 -2.2673
 8349WAT     H234103   2.106   6.643   2.560  0.2484  1.3802  0.5815
 8349WAT    EPW34104   2.038   6.651   2.597  0.4656 -0.4317 -0.0635
 8350WAT      O34105   1.732   6.058   3.488  0.3555 -0.0020  0.0581
 8350WAT     H134106   1.697   6.038   3.410 -2.2091 -0.1939  1.1608
 8350WAT     H234107   1.721   5.985   3.534  2.8608 -0.2778  0.3646
 8350WAT    EPW34108   1.725   6.044   3.483  0.6611  0.2058 -0.1187
 8351WAT      O34109   2.219   1.378   5.161 -0.2116 -0.4884  0.4159
 8351WAT     H134110   2.243   1.333   5.090  1.1852  0.0541  0.5023
 8351WAT     H234111   2.257   1.333   5.226 -2.0263 -1.3728  0.9395
 8351WAT    EPW34112   2.228   1.364   5.160  0.3459 -0.6318 -0.8029
 8352WAT      O34113   2.503   0.041   2.865 -0.3764  0.9153  0.0400
 8352WAT     H134114   2.569  -0.009   2.894  0.3622  1.4659 -0.6685
 8352WAT     H234115   2.533   0.122   2.873 -0.3881  1.1178 -1.6347
 8352WAT    EPW34116   2.517   0.045   2.871 -1.1401  0.2098 -0.4466
 8353WAT      O34117   1.799   7.180   3.633  0.4966  0.4889  0.2550
 8353WAT     H134118   1.832   7.116   3.682  0.9171  0.7554  0.3333
 8353WAT     H234119   1.861   7.242   3.637 -0.0368  1.0184  0.4253
 8353WAT    EPW34120   1.813   7.180   3.641 -0.4111  0.0026  0.8527
 8354WAT      O34121   3.334   6.037   1.790 -0.3461  0.2749 -0.6111
 8354WAT     H134122   3.364   6.107   1.832 -0.5121  1.6283 -2.6111
 8354WAT     H234123   3.405   5.987   1.780  0.9924  2.4480 -3.3994
 8354WAT    EPW34124   3.349   6.040   1.795 -0.1966  0.2753 -0.4161
 8355WAT      O34125   4.072   1.182   5.265 -0.3537 -0.6394  0.2101
 8355WAT     H134126   4.157   1.200   5.264  0.3338 -3.4366 -0.7615
 8355WAT     H234127   4.038   1.245   5.315  2.2690  0.5326  0.6576
 8355WAT    EPW34128   4.079   1.194   5.272 -0.5092 -0.0433  0.5880
 8356WAT      O34129   0.019   0.140   0.602 -0.4175 -0.0990 -0.8758
 8356WAT     H134130   0.040   0.135   0.686 -1.4697 -1.1943 -0.6417
 8356WAT     H234131  -0.029   0.068   0.588 -0.0208 -0.1017 -2.4864
 8356WAT    EPW34132   0.015   0.129   0.612  0.5200 -0.0127 -0.2349
 8357WAT      O34133   5.769   0.765   1.876 -0.6598 -0.0560  0.0974
 8357WAT     H134134   5.816   0.788   1.946 -0.3375 -0.4507  0.0070
 8357WAT     H234135   5.828   0.733   1.821 -1.2777 -2.7483  0.8659
 8357WAT    EPW34136   5.784   0.764   1.878 -0.1801  0.1234 -0.0271
 8358WAT      O34137   6.499   6.953   4.466  0.3832  0.6428 -0.4375
 8358WAT     H134138   6.509   6.952   4.552  0.7322 -0.1281 -0.4816
 8358WAT     H234139   6.477   7.036   4.449  0.9794  0.9663  0.3141
 8358WAT    EPW34140   6.497   6.965   4.476  0.0194  0.1711 -0.3051
 8359WAT      O34141   2.490   5.444   0.365  0.8391 -0.2091 -0.0918
 8359WAT     H134142   2.418   5.396   0.355 -0.1740  1.6256 -2.2442
 8359WAT     H234143   2.476   5.514   0.316  2.5992  1.9746  2.2328
 8359WAT    EPW34144   2.478   5.447   0.357 -0.0236 -0.9373  0.1490
 8360WAT      O34145   4.556   4.347   0.033  0.1833  0.4581 -0.1583
 8360WAT     H134146   4.540   4.372   0.115 -0.1087  1.5507 -0.5304
 8360WAT     H234147   4.639   4.371   0.020  0.5142 -0.5145  0.0917
 8360WAT    EPW34148   4.566   4.354   0.043  1.0188  0.3426  0.3628
 8361WAT      O34149   2.744   1.485   0.727 -0.1050 -0.5566  0.0417
 8361WAT     H134150   2.789   1.485   0.802  0.3087  0.7086 -0.1923
 8361WAT     H234151   2.773   1.414   0.686  0.7838 -0.4284  0.4247
 8361WAT    EPW34152   2.755   1.474   0.732  0.3031 -0.0408 -0.0287
 8362WAT      O34153   2.417   1.476   3.282 -0.0564 -0.4582 -0.0658
 8362WAT     H134154   2.331   1.478   3.269 -0.1002  0.2680  0.2928
 8362WAT     H234155   2.425   1.461   3.368  0.1998 -2.1067 -0.3465
 8362WAT    EPW34156   2.406   1.474   3.293 -0.0744  0.4263 -0.5100
 8363WAT      O34157   1.974   6.083   1.596 -0.2838  0.4063 -0.1323
 8363WAT     H134158   2.060   6.096   1.602 -0.0939 -0.4379 -0.8273
 8363WAT     H234159   1.966   6.029   1.529 -1.4746  1.5716 -0.9844
 8363WAT    EPW34160   1.985   6.077   1.587 -0.0006  0.4513 -0.0470
 8364WAT      O34161   0.876   4.944   0.420  0.4116 -0.2484 -0.2008
 8364WAT     H134162   0.822   4.876   0.420 -2.2992  1.6918 -0.8922
 8364WAT     H234163   0.877   4.970   0.503  1.9231 -1.3690  0.1790
 8364WAT    EPW34164   0.868   4.938   0.432  0.0550  0.0581 -0.4578
 8365WAT      O34165   5.725   1.308   5.220 -0.6516 -0.2602 -0.4408
 8365WAT     H134166   5.736   1.338   5.139 -1.9973 -2.6492 -1.6286
 8365WAT     H234167   5.799   1.266   5.237 -1.5216 -2.4791 -1.8029
 8365WAT    EPW34168   5.737   1.306   5.211 -0.1769 -0.1206 -1.1302
 8366WAT      O34169   1.099   3.509   5.514  0.0234  0.3775 -0.2006
 8366WAT     H134170   1.123   3.480   5.593 -1.2391  1.1143  0.5030
 8366WAT     H234171   1.160   3.478   5.461  0.0183 -1.5842  0.8195
 8366WAT    EPW34172   1.111   3.500   5.518  0.1479 -0.6700 -0.4972
 8367WAT      O34173   1.545   2.471   4.474 -0.2263  0.1335 -0.4842
 8367WAT     H134174   1.512   2.546   4.445 -0.1087  0.1458 -0.5919
 8367WAT     H234175   1.493   2.410   4.437 -0.0438  0.1473 -0.7726
 8367WAT    EPW34176   1.533   2.473   4.464 -0.0873 -0.2951 -0.1308
 8368WAT      O34177   3.763   1.892   1.351 -0.4177 -0.1327  0.1959
 8368WAT     H134178   3.724   1.899   1.428 -0.1464  0.9007  0.2588
 8368WAT     H234179   3.704   1.850   1.301 -1.7324  1.5840  0.2159
 8368WAT    EPW34180   3.749   1.887   1.355  0.1024  0.3994  0.2095
 8369WAT      O34181   1.725   3.055   3.729 -0.4388  0.0406  0.1986
 8369WAT     H134182   1.748   3.016   3.803 -0.1618  0.0992  0.1456
 8369WAT     H234183   1.801   3.063   3.686 -0.3537  1.3777  0.5562
 8369WAT    EPW34184   1.740   3.050   3.733 -0.0216 -0.0914 -0.2901
 8370WAT      O34185   3.752   0.019   4.246  0.3259 -0.0067 -0.0998
 8370WAT     H134186   3.761   0.013   4.333  2.1638 -1.0606 -0.3091
 8370WAT     H234187   3.818   0.070   4.222 -0.2800  0.4262 -0.8697
 8370WAT    EPW34188   3.763   0.025   4.256  0.5061  0.2232  0.1450
 8371WAT      O34189   0.978   0.058   6.331 -0.4904  0.1516  0.5872
 8371WAT     H134190   1.005   0.019   6.257  0.3424 -0.7903  1.3653
 8371WAT     H234191   1.052   0.090   6.364 -0.8318  0.3794  1.1202
 8371WAT    EPW34192   0.993   0.057   6.325 -0.2530  0.2143  0.0472
 8372WAT      O34193   2.779   1.591   5.002  0.0904 -0.6166 -0.0429
 8372WAT     H134194   2.796   1.579   4.918  2.8401 -2.1087  0.6169
 8372WAT     H234195   2.700   1.555   5.012  0.0820 -1.1767 -1.8003
 8372WAT    EPW34196   2.770   1.584   4.991  0.6088 -0.1067 -0.5047
 8373WAT      O34197   6.949   0.961   0.714  0.2591 -0.2910  0.3113
 8373WAT     H134198   6.869   0.957   0.680  0.6779 -1.1561 -0.6007
 8373WAT     H234199   6.948   1.037   0.758 -0.5668  0.4723 -0.9426
 8373WAT    EPW34200   6.937   0.972   0.716 -0.7344  0.2165 -0.2601
 8374WAT      O34201   2.016   7.289   6.320 -0.6249 -0.2838  0.3276
 8374WAT     H134202   2.047   7.303   6.240 -0.5399  0.3314  0.4592
 8374WAT     H234203   2.063   7.344   6.370 -0.6806 -0.6556  0.7932
 8374WAT    EPW34204   2.027   7.299   6.316  0.6967 -0.6542  0.1506
 8375WAT      O34205   5.369   4.110   6.173  0.1690  0.1982 -0.0236
 8375WAT     H134206   5.402   4.092   6.252  2.4050  2.0725 -0.4194
 8375WAT     H234207   5.287   4.133   6.190  0.2738 -0.4783  1.6194
 8375WAT    EPW34208   5.362   4.111   6.187 -0.2511 -0.1588 -0.2026
 8376WAT      O34209   5.780   1.090   3.686  0.2144 -0.4837 -0.6914
 8376WAT     H134210   5.775   1.025   3.743  1.3260 -0.6213 -0.7171
 8376WAT     H234211   5.756   1.160   3.733  0.7428 -0.6522 -0.1415
 8376WAT    EPW34212   5.776   1.091   3.702 -0.4839  0.3387  0.4492
 8377WAT      O34213   5.191   4.824   1.502 -0.2551 -0.4289  0.0030
 8377WAT     H134214   5.226   4.779   1.436  0.9467 -2.0378  1.6267
 8377WAT     H234215   5.235   4.900   1.502  0.1473 -0.6599 -0.6754
 8377WAT    EPW34216   5.203   4.829   1.492 -0.4368 -0.2096  0.2166
 8378WAT      O34217   3.015   7.098   0.489 -0.7436 -0.4845  0.6535
 8378WAT     H134218   3.092   7.058   0.478 -0.8605 -0.3267 -0.9182
 8378WAT     H234219   2.957   7.040   0.457 -1.2414 -0.4170  1.4135
 8378WAT    EPW34220   3.018   7.083   0.483 -0.2397 -0.1161  0.5059
 8379WAT      O34221   4.052   0.625   1.301  0.1914  0.2010 -0.4401
 8379WAT     H134222   4.094   0.674   1.360 -0.6275  2.0502 -1.3105
 8379WAT     H234223   3.982   0.673   1.281 -1.0227 -1.6550 -0.8816
 8379WAT    EPW34224   4.047   0.639   1.307  0.0242  0.0850  0.5856
 8380WAT      O34225   2.805   7.279   1.107 -0.0935  0.7581 -0.2212
 8380WAT     H134226   2.768   7.224   1.049 -1.1506  0.6627  0.5094
 8380WAT     H234227   2.828   7.347   1.059 -0.6931  0.5566 -0.8095
 8380WAT    EPW34228   2.803   7.281   1.091 -0.3737  0.3732 -0.1023
 8381WAT      O34229   6.478   6.232   0.231  0.2151 -0.3421  0.1998
 8381WAT     H134230   6.402   6.191   0.217  0.0165 -0.3302  1.1759
 8381WAT     H234231   6.459   6.292   0.291  1.1243 -0.7987  0.9885
 8381WAT    EPW34232   6.464   6.235   0.238  0.0598  0.2670 -0.2265
 8382WAT      O34233   6.860   2.472   2.252  0.3022  0.2642  0.4166
 8382WAT     H134234   6.812   2.411   2.293  2.6982 -2.2484 -0.2449
 8382WAT     H234235   6.922   2.492   2.310  0.9018  0.3159 -0.2261
 8382WAT    EPW34236   6.862   2.466   2.267  0.4165 -0.5109  0.6714
 8383WAT      O34237   5.796   2.739   6.169  0.7764  0.0625  0.0922
 8383WAT     H134238   5.812   2.679   6.108 -1.1605 -0.2700 -0.1525
 8383WAT     H234239   5.733   2.702   6.218  0.7206  1.2170  0.9289
 8383WAT    EPW34240   5.789   2.725   6.167 -0.3518  0.0112  0.0614
 8384WAT      O34241   2.000   6.375   6.200  0.0898 -0.3510  0.9787
 8384WAT     H134242   2.030   6.314   6.145  0.7639  0.8059 -0.0082
 8384WAT     H234243   2.051   6.366   6.270  1.8838  0.6415 -0.1196
 8384WAT    EPW34244   2.012   6.365   6.202 -0.0369 -0.2814  0.2641
 8385WAT      O34245   4.784   2.104   2.404  0.3282  0.0297 -0.2770
 8385WAT     H134246   4.816   2.108   2.485 -2.2363  1.9751  0.7884
 8385WAT     H234247   4.749   2.024   2.399  1.2127 -0.3994  0.1848
 8385WAT    EPW34248   4.783   2.093   2.415  0.3873  0.3617  0.1054
 8386WAT      O34249   3.958   4.213   0.450  0.1028  0.2110 -0.0509
 8386WAT     H134250   3.945   4.273   0.388 -1.1581 -0.9407 -0.9738
 8386WAT     H234251   4.045   4.208   0.455  0.2303  1.4327 -0.6216
 8386WAT    EPW34252   3.969   4.221   0.441  0.3140  0.3855  0.6818
 8387WAT      O34253   7.098   3.072   2.840 -0.5655  0.3884 -0.2049
 8387WAT     H134254   7.155   3.136   2.852  0.8325 -0.8401 -0.0317
 8387WAT     H234255   7.032   3.092   2.894  0.4492  0.9796  0.8500
 8387WAT    EPW34256   7.097   3.084   2.850  0.4740 -0.3396 -0.1738
 8388WAT      O34257   6.882   0.083   1.149  0.3620  0.1027 -0.1542
 8388WAT     H134258   6.901   0.055   1.229  0.5878  0.8674  0.0689
 8388WAT     H234259   6.957   0.120   1.122 -0.4362  2.1635  0.3016
 8388WAT    EPW34260   6.896   0.084   1.157  0.0916 -0.3146 -0.6200
 8389WAT      O34261   3.085   5.744   4.695  0.1547  0.2343  0.1332
 8389WAT     H134262   3.156   5.788   4.670  0.0702 -0.1890 -0.8787
 8389WAT     H234263   3.020   5.786   4.657 -0.2481  1.0807  1.6665
 8389WAT    EPW34264   3.086   5.757   4.686  0.1859 -0.3515  0.6649
 8390WAT      O34265   5.000   0.655   2.402  0.1190  0.0671  0.4042
 8390WAT     H134266   5.049   0.585   2.420 -2.6645 -1.5957  2.2920
 8390WAT     H234267   4.993   0.696   2.478  0.7906  1.8678 -0.4387
 8390WAT    EPW34268   5.006   0.651   2.416 -0.9657 -0.1334  0.2636
 8391WAT      O34269   3.517   1.398   3.827 -0.8031 -0.3389 -1.2192
 8391WAT     H134270   3.599   1.424   3.841 -0.3075 -1.0708 -2.5338
 8391WAT     H234271   3.487   1.376   3.906 -0.8845  3.0046 -0.1841
 8391WAT    EPW34272   3.524   1.399   3.841 -0.3734  0.0419 -0.2168
 8392WAT      O34273   6.394   1.942   0.616  0.0673 -0.2907 -0.1254
 8392WAT     H134274   6.426   1.910   0.541  0.6711  0.6270 -0.2689
 8392WAT     H234275   6.436   2.018   0.626 -2.4968  1.3200 -0.6763
 8392WAT    EPW34276   6.405   1.948   0.606 -0.1363  0.2723 -0.1979
 8393WAT      O34277   4.710   1.297   6.607 -0.9891  0.3852 -0.3390
 8393WAT     H134278   4.779   1.297   6.554 -0.3995  3.2457  0.2548
 8393WAT     H234279   4.651   1.345   6.564 -1.0425  1.4716  0.8914
 8393WAT    EPW34280   4.712   1.304   6.593 -0.6077  0.3056  0.0709
 8394WAT      O34281   3.241   6.285   7.443 -0.3959 -0.0614 -0.2424
 8394WAT     H134282   3.198   6.246   7.377 -1.7281  1.2155 -0.1925
 8394WAT     H234283   3.204   6.364   7.447 -0.1326  0.0113  1.8476
 8394WAT    EPW34284   3.229   6.291   7.434 -0.3618 -0.1825 -0.0554
 8395WAT      O34285   4.422   6.704   0.246  0.0146  0.0078 -0.2462
 8395WAT     H134286   4.455   6.677   0.322  0.8787 -0.9185 -0.9170
 8395WAT     H234287   4.492   6.731   0.202 -0.3595 -0.2116 -0.9971
 8395WAT    EPW34288   4.438   6.704   0.251 -0.1723  0.0493 -0.2288
 8396WAT      O34289   5.164   4.004   2.401  0.1183  0.0433 -0.2103
 8396WAT     H134290   5.164   4.070   2.345 -1.1276 -0.7064 -1.1456
 8396WAT     H234291   5.139   4.041   2.476  1.0280  0.9101 -0.3219
 8396WAT    EPW34292   5.160   4.019   2.404 -0.0630 -0.1571 -0.6422
 8397WAT      O34293   6.680   0.667   1.967  0.0785  0.3823 -1.0412
 8397WAT     H134294   6.668   0.750   1.989 -1.9189  0.4938 -2.3296
 8397WAT     H234295   6.705   0.629   2.042 -1.8014  1.6090  0.2698
 8397WAT    EPW34296   6.682   0.673   1.982  0.7751  0.0858 -0.2425
 8398WAT      O34297   6.584   3.274   4.812 -0.2092  0.3659  0.1904
 8398WAT     H134298   6.607   3.240   4.735  1.1364  0.4031  0.5498
 8398WAT     H234299   6.651   3.326   4.831 -0.8011  0.7996  1.1224
 8398WAT    EPW34300   6.598   3.277   4.803  0.1158  0.9435  0.7650
 8399WAT      O34301   5.783   0.489   2.346 -0.0569 -0.2134  0.8982
 8399WAT     H134302   5.803   0.574   2.344  1.1180 -0.4779  0.6785
 8399WAT     H234303   5.699   0.487   2.323  0.2797  0.7905 -0.5724
 8399WAT    EPW34304   5.773   0.501   2.342  0.3341 -0.0202 -0.0097
 8400WAT      O34305   3.519   3.110   7.104  0.4879 -0.4422  0.4294
 8400WAT     H134306   3.519   3.164   7.173 -1.8467 -0.0275  0.1926
 8400WAT     H234307   3.470   3.043   7.131  0.4181 -0.7706 -0.4917
 8400WAT    EPW34308   3.512   3.108   7.118  0.2689  0.5237 -0.3353
 8401WAT      O34309   3.160   6.745   1.054  0.3298  0.1298 -0.1814
 8401WAT     H134310   3.126   6.687   0.999  0.0643  0.8673 -0.8113
 8401WAT     H234311   3.150   6.707   1.132  2.6763 -1.8655 -0.7679
 8401WAT    EPW34312   3.153   6.731   1.058  0.6658 -0.4057  0.0810
 8402WAT      O34313   4.492   1.877   5.315  0.1010  0.0832 -0.0461
 8402WAT     H134314   4.412   1.877   5.281  0.2840  0.3127 -0.4724
 8402WAT     H234315   4.543   1.900   5.249  0.6171 -0.8619  0.0063
 8402WAT    EPW34316   4.488   1.880   5.300 -0.1102 -0.6160 -0.0986
 8403WAT      O34317   5.823   2.676   2.911 -0.0947  0.0089  0.2658
 8403WAT     H134318   5.852   2.741   2.960  0.9419 -0.7557  0.7001
 8403WAT     H234319   5.766   2.635   2.963  0.0994 -0.0913  0.3995
 8403WAT    EPW34320   5.819   2.679   2.926 -0.3486 -0.3022  0.0497
 8404WAT      O34321   2.065   2.075   2.608 -0.2920 -0.3420 -0.0452
 8404WAT     H134322   2.034   2.140   2.657  0.5684  1.1603 -1.3876
 8404WAT     H234323   2.032   2.004   2.645 -0.0330  0.7266  2.4341
 8404WAT    EPW34324   2.056   2.074   2.620  0.5865 -0.5435 -0.2046
 8405WAT      O34325   5.560   5.003   1.307  0.5271 -0.2612 -0.1306
 8405WAT     H134326   5.497   5.022   1.363  0.7904  0.6314 -0.1245
 8405WAT     H234327   5.589   4.926   1.334 -0.6383 -0.7532 -0.2122
 8405WAT    EPW34328   5.555   4.994   1.319  0.5113  0.4489 -0.1817
 8406WAT      O34329   3.553   3.841   1.328 -0.2385  0.1682  0.2347
 8406WAT     H134330   3.532   3.778   1.270 -0.4145  0.4383  0.0002
 8406WAT     H234331   3.487   3.897   1.321 -0.0003  0.4609  0.3304
 8406WAT    EPW34332   3.540   3.840   1.318 -1.3405  0.3042  0.3007
 8407WAT      O34333   0.083   6.765   0.524 -0.9625 -0.3198 -0.1133
 8407WAT     H134334   0.151   6.728   0.564 -0.9426 -0.9162 -0.6792
 8407WAT     H234335   0.119   6.828   0.476 -0.8614 -0.3393 -0.0633
 8407WAT    EPW34336   0.098   6.768   0.523 -0.0550 -0.5881 -0.0081
 8408WAT      O34337   2.506   2.085   4.686 -0.4965 -0.3545 -0.2366
 8408WAT     H134338   2.566   2.126   4.637 -1.1308 -2.2110 -2.7422
 8408WAT     H234339   2.449   2.148   4.706 -0.0111  0.5538 -1.6052
 8408WAT    EPW34340   2.506   2.100   4.682 -0.3000  0.0151  0.3474
 8409WAT      O34341   0.595   3.553   3.433 -0.1366  0.2878  0.0880
 8409WAT     H134342   0.596   3.574   3.518  0.2411  2.3834 -0.3704
 8409WAT     H234343   0.660   3.495   3.425  0.9663  1.3488  0.9734
 8409WAT    EPW34344   0.605   3.548   3.444  0.3400  0.6079 -0.6796
 8410WAT      O34345   3.541   1.391   5.223  0.0577  0.2035  0.5251
 8410WAT     H134346   3.571   1.309   5.222 -0.7615 -0.1240  1.5030
 8410WAT     H234347   3.542   1.413   5.308 -1.0366  0.7022  0.4274
 8410WAT    EPW34348   3.545   1.382   5.235  0.2471 -0.0069  0.2954
 8411WAT      O34349   1.471   4.135   3.793  1.2557 -0.6435 -0.3826
 8411WAT     H134350   1.391   4.102   3.793  1.5830 -1.5380 -1.9259
 8411WAT     H234351   1.459   4.219   3.815  0.1319 -1.1658  1.1796
 8411WAT    EPW34352   1.458   4.143   3.796 -0.6057  0.2229  0.6589
 8412WAT      O34353   2.322   6.503   4.121  0.6598 -0.4715  0.8327
 8412WAT     H134354   2.283   6.474   4.194  0.3882  0.6429  1.1542
 8412WAT     H234355   2.394   6.454   4.116  0.6360 -0.6378  1.8027
 8412WAT    EPW34356   2.327   6.492   4.131 -0.0765  0.1130 -0.6004
 8413WAT      O34357   3.740   6.030   4.914 -0.4905 -0.1668  0.1486
 8413WAT     H134358   3.706   6.110   4.921 -0.1835  0.1764 -1.6865
 8413WAT     H234359   3.750   6.020   4.828  0.1962 -1.8876  0.3922
 8413WAT    EPW34360   3.737   6.040   4.902 -0.2798 -0.3760 -0.4540
 8414WAT      O34361   2.937   7.516   6.609 -0.0538 -0.4102  0.1408
 8414WAT     H134362   2.932   7.461   6.541  0.9572 -0.0248 -0.2659
 8414WAT     H234363   2.855   7.522   6.637 -0.4921 -0.5702 -1.0671
 8414WAT    EPW34364   2.924   7.509   6.603 -0.3680 -0.4055 -1.3154
 8415WAT      O34365   1.644   0.863   6.055 -0.0556  0.0498 -0.4550
 8415WAT     H134366   1.708   0.842   6.111  0.3860  0.7326 -0.6903
 8415WAT     H234367   1.639   0.794   6.002 -0.0223 -0.3183  0.0106
 8415WAT    EPW34368   1.652   0.850   6.055 -0.3156 -0.1253  0.7706
 8416WAT      O34369   1.674   7.388   2.860 -0.3161 -0.1023 -0.8918
 8416WAT     H134370   1.675   7.463   2.904  0.8671 -0.4284 -0.3200
 8416WAT     H234371   1.708   7.409   2.782  0.9116 -0.2098 -0.4061
 8416WAT    EPW34372   1.679   7.402   2.855 -0.3927  0.1250 -0.3224
 8417WAT      O34373   6.256   5.708   4.202  0.1862 -0.3263 -0.4240
 8417WAT     H134374   6.221   5.628   4.206 -0.3696 -0.0426  0.8621
 8417WAT     H234375   6.312   5.709   4.269 -1.1839  0.9548  0.7963
 8417WAT    EPW34376   6.259   5.696   4.213  0.0735  0.3417 -0.7393
 8418WAT      O34377   2.259   4.798   1.865 -0.1573  0.9039 -0.9059
 8418WAT     H134378   2.333   4.836   1.838 -0.5881  1.9679 -0.6723
 8418WAT     H234379   2.238   4.845   1.936  0.1347 -0.8333  0.3797
 8418WAT    EPW34380   2.267   4.811   1.871 -0.0287 -0.5944  0.4986
 8419WAT      O34381   4.873   0.095   5.157  0.7240  0.1359 -0.9604
 8419WAT     H134382   4.906   0.021   5.187 -0.6569 -0.4652 -0.8700
 8419WAT     H234383   4.859   0.079   5.072 -1.3043 -0.4009 -0.5805
 8419WAT    EPW34384   4.876   0.082   5.149 -0.3792  0.6155  0.6816
 8420WAT      O34385   1.487   6.464   1.484 -0.2383 -0.5227  0.0023
 8420WAT     H134386   1.450   6.418   1.420 -0.2742  0.0594 -0.3961
 8420WAT     H234387   1.443   6.539   1.484  0.5273 -0.0612 -0.0796
 8420WAT    EPW34388   1.475   6.468   1.474  0.1223 -0.5891 -0.1857
 8421WAT      O34389   1.502   2.887   1.677 -0.2414  0.3885  0.1939
 8421WAT     H134390   1.544   2.832   1.624 -0.4600 -0.0999  0.5161
 8421WAT     H234391   1.548   2.961   1.671 -0.0638  0.2352 -0.4057
 8421WAT    EPW34392   1.515   2.890   1.669  0.3365  0.6684 -0.1565
 8422WAT      O34393   4.301   1.875   1.838  0.1876 -0.0051  0.5386
 8422WAT     H134394   4.373   1.841   1.802 -0.9329  1.4237 -3.5776
 8422WAT     H234395   4.260   1.805   1.870  1.2833 -1.5406 -1.1808
 8422WAT    EPW34396   4.306   1.860   1.838  0.0140  0.3158  0.3449
 8423WAT      O34397   0.382   0.095   0.371 -0.4147 -0.0354 -0.0729
 8423WAT     H134398   0.450   0.092   0.426  0.9377 -0.8655 -1.7110
 8423WAT     H234399   0.413   0.137   0.302 -2.2466  1.4699 -0.0673
 8423WAT    EPW34400   0.396   0.100   0.369  0.3738  0.1097  0.3555
 8424WAT      O34401   3.944   2.636   7.054  0.0161  0.0662 -0.0062
 8424WAT     H134402   3.966   2.604   6.976 -0.0729 -1.3789  0.5352
 8424WAT     H234403   3.912   2.567   7.096  0.9293  0.6083  1.6500
 8424WAT    EPW34404   3.943   2.621   7.048 -0.5243  0.3806 -0.3970
 8425WAT      O34405   4.486   0.172   3.312  0.0164  0.0808 -0.6191
 8425WAT     H134406   4.553   0.227   3.300  1.1300 -0.9497  0.4961
 8425WAT     H234407   4.507   0.132   3.386 -1.4388 -0.8840 -0.7055
 8425WAT    EPW34408   4.499   0.174   3.321  0.3532  0.4624 -0.4340
 8426WAT      O34409   1.840   3.266   7.258  0.1038 -0.2873  0.0583
 8426WAT     H134410   1.900   3.285   7.198 -0.2981 -0.4954 -0.4264
 8426WAT     H234411   1.765   3.268   7.213 -0.3111  0.4248  0.7452
 8426WAT    EPW34412   1.838   3.269   7.242 -0.6262  0.2462  0.0020
 8427WAT      O34413   3.526   5.190   7.476  0.2433  0.0072 -0.3246
 8427WAT     H134414   3.486   5.200   7.398  2.2934 -1.7173 -1.7179
 8427WAT     H234415   3.588   5.251   7.475 -0.1106  0.3796  0.2479
 8427WAT    EPW34416   3.529   5.201   7.464  0.0999  0.8986 -0.6861
 8428WAT      O34417   3.309   5.025   2.514  0.0872  0.4260  0.0686
 8428WAT     H134418   3.222   5.022   2.505  0.1718  1.3393 -1.3681
 8428WAT     H234419   3.334   5.082   2.453  1.7970 -0.6714 -0.3318
 8428WAT    EPW34420   3.299   5.033   2.503  0.1585 -0.0416  0.0639
 8429WAT      O34421   0.369   2.727   5.583  0.1711 -0.7248 -0.3984
 8429WAT     H134422   0.317   2.785   5.543 -1.9409  0.0582  3.0632
 8429WAT     H234423   0.442   2.772   5.597 -0.0963 -0.0998 -0.9346
 8429WAT    EPW34424   0.372   2.742   5.579 -0.1660 -0.5780  0.2767
 8430WAT      O34425   6.573   1.037   4.562  0.0584  0.1903  0.5682
 8430WAT     H134426   6.573   0.966   4.512  1.4969  0.7941 -0.3612
 8430WAT     H234427   6.489   1.046   4.585 -0.5173 -0.6050 -1.0345
 8430WAT    EPW34428   6.560   1.028   4.558 -0.2712 -0.1861  0.0379
 8431WAT      O34429   0.312   5.047   1.222 -0.2926  0.1679  0.1076
 8431WAT     H134430   0.351   5.007   1.289 -0.8818 -1.3476 -0.4195
 8431WAT     H234431   0.349   5.127   1.222  0.2884 -0.0612  1.7196
 8431WAT    EPW34432   0.323   5.053   1.231  0.3301 -0.8224  0.8821
 8432WAT      O34433   2.149   0.851   4.023 -0.1718 -0.7415  0.4107
 8432WAT     H134434   2.227   0.884   4.045 -0.4705  0.4371 -0.2319
 8432WAT     H234435   2.162   0.765   4.028  0.8248 -0.5684  1.4848
 8432WAT    EPW34436   2.162   0.843   4.027 -0.0290  0.2545  0.6845
 8433WAT      O34437   0.840   2.475   2.014  0.0996  0.6143 -0.1861
 8433WAT     H134438   0.840   2.388   2.007  0.1727  0.6161 -0.2077
 8433WAT     H234439   0.883   2.490   2.088 -1.8710  0.5384  1.0620
 8433WAT    EPW34440   0.846   2.465   2.024  0.7030 -0.1177 -0.4622
 8434WAT      O34441   4.599   1.755   5.535 -0.2065  0.5749 -0.4685
 8434WAT     H134442   4.539   1.786   5.480 -3.0088 -0.2740  1.8277
 8434WAT     H234443   4.561   1.764   5.614  1.8946 -1.7795  0.9795
 8434WAT    EPW34444   4.585   1.761   5.539 -0.3446  0.1794  0.1827
 8435WAT      O34445   0.803   1.581   0.768 -0.3874  0.3687  0.7262
 8435WAT     H134446   0.758   1.653   0.788 -0.4213  0.3923  0.5657
 8435WAT     H234447   0.742   1.525   0.741 -0.2359  0.6951 -0.3389
 8435WAT    EPW34448   0.788   1.583   0.767  0.4002  0.2598  0.2026
 8436WAT      O34449   3.862   0.320   4.617  0.4331  0.0843 -0.2445
 8436WAT     H134450   3.928   0.352   4.568  1.0347  0.6475  0.9002
 8436WAT     H234451   3.867   0.234   4.602  2.9058 -0.1874  1.4758
 8436WAT    EPW34452   3.873   0.312   4.607  0.4725 -0.9188  0.2390
 8437WAT      O34453   0.669   2.820   3.541 -0.0701 -0.0802  0.3139
 8437WAT     H134454   0.686   2.833   3.457  0.2317 -2.8707 -0.1542
 8437WAT     H234455   0.585   2.793   3.541 -0.1454  0.1365  0.9311
 8437WAT    EPW34456   0.659   2.818   3.529  0.1500 -0.3569  0.9429
 8438WAT      O34457   5.468   2.773   5.392  0.3602 -0.4090  0.0718
 8438WAT     H134458   5.382   2.770   5.373  0.5641 -0.2366 -0.9357
 8438WAT     H234459   5.503   2.810   5.322  1.3307 -0.9148  0.2749
 8438WAT    EPW34460   5.460   2.778   5.379 -0.2195 -0.5608  0.5037
 8439WAT      O34461   2.792   2.020   1.341 -0.1126 -0.4630 -0.2952
 8439WAT     H134462   2.710   2.021   1.311 -0.0759  0.1019 -0.3732
 8439WAT     H234463   2.839   2.045   1.272 -0.1198  1.9459  0.4997
 8439WAT    EPW34464   2.787   2.024   1.326  0.2226 -0.3904  0.2244
 8440WAT      O34465   4.049   0.365   4.035  0.5408  0.1284 -0.3944
 8440WAT     H134466   3.978   0.412   4.054 -0.2067 -0.6791 -1.1381
 8440WAT     H234467   4.032   0.331   3.957  1.8253  0.0569 -0.6733
 8440WAT    EPW34468   4.036   0.367   4.026  0.3617  0.0054 -0.6357
 8441WAT      O34469   4.586   5.475   2.156  0.1121 -0.3350 -0.1367
 8441WAT     H134470   4.527   5.416   2.127 -0.7256  0.6621 -0.5195
 8441WAT     H234471   4.651   5.469   2.098  0.1820 -1.1049  0.0105
 8441WAT    EPW34472   4.587   5.465   2.143  0.0353  0.5742 -0.0186
 8442WAT      O34473   1.381   6.692   6.195  0.1114  0.1290  0.3795
 8442WAT     H134474   1.469   6.693   6.196  0.1707  1.4463 -1.2144
 8442WAT     H234475   1.362   6.613   6.165  0.8355  0.3382 -0.6992
 8442WAT    EPW34476   1.391   6.681   6.190  0.1058 -0.3469  0.0053
 8443WAT      O34477   0.838   2.839   2.130 -0.0630 -0.1139  0.4526
 8443WAT     H134478   0.774   2.792   2.094 -0.1390  0.9929 -0.9687
 8443WAT     H234479   0.900   2.838   2.069  1.0972 -0.7469  1.6025
 8443WAT    EPW34480   0.838   2.832   2.115 -0.1353  0.5096  0.1963
 8444WAT      O34481   1.274   2.636   4.219 -0.1037  0.3799  0.0967
 8444WAT     H134482   1.287   2.552   4.240 -2.2446  0.3635  1.7034
 8444WAT     H234483   1.315   2.679   4.282  1.2026  0.5945 -0.8636
 8444WAT    EPW34484   1.282   2.630   4.231 -0.7056  0.4960 -0.2103
 8445WAT      O34485   6.703   1.511   2.171 -0.2209 -0.1558 -0.3938
 8445WAT     H134486   6.736   1.486   2.094 -1.1563 -1.5514 -0.3847
 8445WAT     H234487   6.618   1.495   2.163 -0.7815  2.2705 -0.0033
 8445WAT    EPW34488   6.695   1.505   2.159  0.2664 -0.2266 -0.1180
 8446WAT      O34489   7.645   0.965   0.000 -0.7993 -0.0681 -0.1726
 8446WAT     H134490   7.653   1.050   0.018 -1.3202  0.0920 -0.6961
 8446WAT     H234491   7.599   0.934   0.068 -0.8360  0.1165 -0.1138
 8446WAT    EPW34492   7.639   0.973   0.013 -1.0053 -0.3710  0.1124
 8447WAT      O34493   2.926   4.509   0.273 -0.1767  0.0693 -0.3378
 8447WAT     H134494   2.978   4.539   0.210 -1.3592  0.1825 -1.2973
 8447WAT     H234495   2.883   4.443   0.235  0.7804 -1.4426  1.0731
 8447WAT    EPW34496   2.927   4.503   0.258  0.0886 -0.0610 -0.5018
 8448WAT      O34497   0.467   3.658   7.224  0.0150  0.0828 -0.1633
 8448WAT     H134498   0.495   3.691   7.299  0.5946 -0.8765  0.0586
 8448WAT     H234499   0.517   3.699   7.164  0.4918 -0.1385  0.0791
 8448WAT    EPW34500   0.479   3.669   7.226 -0.3138  0.0462  0.4457
 8449WAT      O34501   6.481   6.381   6.242  0.0103  0.2570  0.0991
 8449WAT     H134502   6.485   6.468   6.240  2.6997  0.1963 -0.5782
 8449WAT     H234503   6.512   6.362   6.321 -1.3290 -0.1063  0.5577
 8449WAT    EPW34504   6.486   6.391   6.253  0.1438  0.0890  0.4117
 8450WAT      O34505   6.220   1.365   0.838  0.4251  0.5881  0.1592
 8450WAT     H134506   6.165   1.300   0.816  0.1042  1.4286 -1.7327
 8450WAT     H234507   6.218   1.365   0.925  0.8706 -2.2895  0.2760
 8450WAT    EPW34508   6.212   1.355   0.847 -0.7393 -0.1216 -0.6836
 8451WAT      O34509   0.946   6.773   0.612  0.5086 -0.0656  0.4473
 8451WAT     H134510   0.924   6.850   0.648  0.7365  0.2454 -0.0681
 8451WAT     H234511   1.027   6.787   0.582  0.6020 -0.5510  0.4756
 8451WAT    EPW34512   0.955   6.787   0.613 -0.0236 -0.3497 -0.9515
 8452WAT      O34513   5.635   3.003   3.082  0.8927 -0.3338 -0.2024
 8452WAT     H134514   5.577   2.979   3.022  1.2015 -3.6563  0.6272
 8452WAT     H234515   5.590   3.059   3.132  0.0996  1.1318 -2.3934
 8452WAT    EPW34516   5.620   3.008   3.081 -0.5431  0.5885  0.2221
 8453WAT      O34517   0.578   3.689   2.646  0.3214 -0.1820 -0.2542
 8453WAT     H134518   0.593   3.648   2.570  0.1993  0.6948 -0.7556
 8453WAT     H234519   0.634   3.650   2.701  0.7150 -0.5345 -0.8888
 8453WAT    EPW34520   0.589   3.677   2.643 -0.2797 -0.4312  0.3595
 8454WAT      O34521   3.195   1.821   0.054  0.6255  0.2254  0.2004
 8454WAT     H134522   3.225   1.745   0.024  0.1224 -0.6301  1.7608
 8454WAT     H234523   3.119   1.801   0.090  1.1140  1.1863  1.8728
 8454WAT    EPW34524   3.188   1.807   0.055  0.4822 -0.7134  0.0544
 8455WAT      O34525   1.805   3.567   4.763 -0.4560  0.1735  0.1013
 8455WAT     H134526   1.863   3.589   4.701  1.0601 -1.3558  0.8967
 8455WAT     H234527   1.729   3.578   4.723  0.4570 -1.3469 -2.3469
 8455WAT    EPW34528   1.803   3.572   4.748  0.0024  0.0640  0.6904
 8456WAT      O34529   3.642   3.443   6.023  0.1963 -0.2831 -0.4833
 8456WAT     H134530   3.617   3.459   5.941  1.6523 -0.3618 -0.9597
 8456WAT     H234531   3.677   3.519   6.049 -0.1024 -0.3094  0.0108
 8456WAT    EPW34532   3.643   3.457   6.015  0.0817  0.0065  0.7586
 8457WAT      O34533   0.409   1.263   7.183 -0.2506  0.3247  0.1120
 8457WAT     H134534   0.381   1.317   7.120 -0.5432  0.5860  0.4614
 8457WAT     H234535   0.414   1.315   7.253  0.4661  0.1283  0.2079
 8457WAT    EPW34536   0.405   1.279   7.184 -0.0154 -0.4963 -0.4658
 8458WAT      O34537   3.121   1.495   3.349 -0.0452  0.3622  0.6755
 8458WAT     H134538   3.167   1.533   3.286  1.7800 -3.1012 -0.3459
 8458WAT     H234539   3.134   1.547   3.419 -0.7794  3.4043 -1.2649
 8458WAT    EPW34540   3.130   1.508   3.350 -0.6309 -0.5240 -1.0909
 8459WAT      O34541   2.490   2.182   5.163  0.0583 -0.3972  0.4195
 8459WAT     H134542   2.555   2.167   5.106 -1.2273  2.1532 -1.9668
 8459WAT     H234543   2.525   2.237   5.221  0.7615 -1.2778  0.8547
 8459WAT    EPW34544   2.505   2.188   5.163 -0.0162 -0.0858 -0.1505
 8460WAT      O34545   5.956   6.179   2.645 -0.2865 -0.0468 -0.3019
 8460WAT     H134546   5.939   6.128   2.714  2.4567 -1.5021 -0.5727
 8460WAT     H234547   5.891   6.160   2.589 -1.8165  0.1775  1.3091
 8460WAT    EPW34548   5.944   6.169   2.647 -0.2339 -0.6194  0.0738
 8461WAT      O34549   4.105   6.286   6.994  0.3856  0.1044  0.2743
 8461WAT     H134550   4.167   6.316   7.048  0.4512  1.5526 -0.5467
 8461WAT     H234551   4.137   6.303   6.915 -0.5627 -0.1758 -0.1815
 8461WAT    EPW34552   4.119   6.293   6.991 -0.7116 -0.8111 -0.2184
 8462WAT      O34553   1.778   6.891   2.134 -0.2773 -0.4129  0.7288
 8462WAT     H134554   1.840   6.831   2.142 -3.1438 -3.5326  2.2225
 8462WAT     H234555   1.737   6.869   2.060  0.7463  2.1422 -0.7285
 8462WAT    EPW34556   1.781   6.879   2.124  0.3131 -0.0568 -0.0384
 8463WAT      O34557   3.409   1.457   6.206  0.1177 -0.3315 -0.2537
 8463WAT     H134558   3.453   1.394   6.165  1.0901  0.8919 -1.1931
 8463WAT     H234559   3.334   1.462   6.160 -0.0280 -0.8678 -0.0870
 8463WAT    EPW34560   3.404   1.448   6.193 -0.3962 -0.1854 -0.0306
 8464WAT      O34561   5.457   3.531   3.446 -0.0323 -0.5990 -0.4402
 8464WAT     H134562   5.428   3.558   3.524  1.3443 -0.6896  0.1369
 8464WAT     H234563   5.489   3.452   3.463 -0.4556 -0.9501 -1.2763
 8464WAT    EPW34564   5.458   3.524   3.460 -0.0590 -0.0974  0.2690
 8465WAT      O34565   4.055   0.486   3.232 -0.7572  0.1704  0.9464
 8465WAT     H134566   3.986   0.512   3.279 -1.0258  1.2839  0.0005
 8465WAT     H234567   4.027   0.412   3.195 -1.8687  1.1191 -0.2278
 8465WAT    EPW34568   4.040   0.479   3.234 -0.3255 -0.3926 -0.0188
 8466WAT      O34569   2.853   7.326   2.416  0.1164 -0.3385 -0.2110
 8466WAT     H134570   2.859   7.409   2.389 -0.1635 -0.5472 -0.9621
 8466WAT     H234571   2.794   7.291   2.361  0.1188 -0.9963  0.1890
 8466WAT    EPW34572   2.845   7.333   2.404  0.1270 -0.6569  0.6102
 8467WAT      O34573   3.960   7.290   6.259  0.1974 -0.0711  0.6133
 8467WAT     H134574   3.930   7.261   6.182  2.4153 -1.5369  0.2228
 8467WAT     H234575   4.013   7.356   6.236 -2.3869  2.4465  1.2889
 8467WAT    EPW34576   3.964   7.296   6.244  0.0654  0.8080  0.0589
 8468WAT      O34577   0.187   7.555   0.143  0.1995 -0.3185  0.3931
 8468WAT     H134578   0.274   7.549   0.133  0.1940 -0.4431  0.4293
 8468WAT     H234579   0.175   7.640   0.158  0.3289 -0.3210  0.5164
 8468WAT    EPW34580   0.198   7.567   0.144 -1.1086  0.3308 -0.4040
 8469WAT      O34581   5.018   2.208   3.872  0.6856  0.3255  0.1097
 8469WAT     H134582   4.990   2.151   3.812 -0.9878  1.2741 -0.0680
 8469WAT     H234583   4.973   2.280   3.854 -0.2066  0.5429  2.7678
 8469WAT    EPW34584   5.007   2.210   3.860 -0.1407  0.0756 -0.1178
 8470WAT      O34585   3.366   3.651   2.106 -0.4056 -0.0702  0.4402
 8470WAT     H134586   3.390   3.582   2.059  2.3191 -0.6361  2.4610
 8470WAT     H234587   3.415   3.645   2.178 -1.4284  2.9692  1.5242
 8470WAT    EPW34588   3.377   3.640   2.110  0.2787  0.0159  0.0720
 8471WAT      O34589   4.941   6.513   0.687  0.2369  0.0510 -0.6262
 8471WAT     H134590   4.954   6.528   0.602 -1.7419  0.3963 -0.9276
 8471WAT     H234591   4.886   6.445   0.687  1.5271 -1.0382  0.4581
 8471WAT    EPW34592   4.935   6.505   0.674 -0.9450  0.3606 -0.0808
 8472WAT      O34593   6.401   6.605   5.493  0.1174 -0.2321  0.3222
 8472WAT     H134594   6.354   6.674   5.470  1.0041 -0.3113 -1.9927
 8472WAT     H234595   6.343   6.539   5.491 -1.1800  0.5217  4.3527
 8472WAT    EPW34596   6.385   6.605   5.490 -0.0401 -0.1819  0.3523
 8473WAT      O34597   5.655   3.610   5.099 -0.2474 -0.3515  0.1662
 8473WAT     H134598   5.701   3.587   5.029 -0.1841 -0.2861  0.1861
 8473WAT     H234599   5.600   3.670   5.068 -0.1826 -0.2829  0.1833
 8473WAT    EPW34600   5.654   3.616   5.084 -0.5687  0.2450  0.0167
 8474WAT      O34601   4.566   3.851   5.571  0.0204  0.3564  0.1668
 8474WAT     H134602   4.573   3.936   5.589 -1.2265  0.3571  0.8065
 8474WAT     H234603   4.545   3.816   5.648 -2.4406 -0.0841 -0.6190
 8474WAT    EPW34604   4.564   3.859   5.585 -0.0396  0.2373 -0.2119
 8475WAT      O34605   0.491   3.958   2.279  0.1620  0.4769  0.1105
 8475WAT     H134606   0.451   3.908   2.338  1.4456 -1.3058 -0.4513
 8475WAT     H234607   0.570   3.972   2.315  0.7991 -0.2626 -0.9336
 8475WAT    EPW34608   0.497   3.953   2.293 -0.2683 -0.4014 -0.3724
 8476WAT      O34609   2.343   6.365   0.624  0.1782 -0.2060 -0.3581
 8476WAT     H134610   2.387   6.381   0.550 -1.5589 -0.1350 -1.4405
 8476WAT     H234611   2.289   6.300   0.602 -2.4783  1.7471 -0.1148
 8476WAT    EPW34612   2.342   6.357   0.610  0.7325 -0.4481  0.0234
 8477WAT      O34613   4.427   0.106   4.972 -0.1053 -0.8039 -0.1894
 8477WAT     H134614   4.443   0.081   4.890  1.6133  1.3855 -0.6135
 8477WAT     H234615   4.497   0.079   5.016 -0.7074 -1.3695  0.4472
 8477WAT    EPW34616   4.440   0.098   4.966 -0.0094 -0.5714 -0.1532
 8478WAT      O34617   7.298   2.006   5.267  0.5620  0.0389  0.4939
 8478WAT     H134618   7.272   1.940   5.318  1.6910 -1.4681 -0.7872
 8478WAT     H234619   7.240   2.005   5.201  0.3214  0.6219  0.6943
 8478WAT    EPW34620   7.285   1.996   5.264 -0.2456 -0.1045 -0.0873
 8479WAT      O34621   0.079   2.142   2.451  0.1748 -0.2420 -0.2913
 8479WAT     H134622   0.023   2.101   2.504  0.3885  1.0665  0.9821
 8479WAT     H234623   0.111   2.077   2.401 -0.0837 -1.5065  1.1229
 8479WAT    EPW34624   0.076   2.126   2.451 -0.1810  0.0158 -0.0883
 8480WAT      O34625   3.824   0.948   3.428  0.2749  0.1041 -0.5957
 8480WAT     H134626   3.911   0.951   3.428  0.3008  0.3375  1.1425
 8480WAT     H234627   3.801   1.022   3.389  0.8793  0.8892  0.4856
 8480WAT    EPW34628   3.834   0.959   3.422 -0.1395  0.2864 -0.5358
 8481WAT      O34629   6.788   4.037   6.210 -0.2682  0.1824  0.0691
 8481WAT     H134630   6.836   3.981   6.163 -1.2287 -2.4352  1.9400
 8481WAT     H234631   6.742   4.081   6.151  0.3169 -1.2326 -1.5086
 8481WAT    EPW34632   6.788   4.035   6.195 -0.3843  0.5244  0.2639
 8482WAT      O34633   5.066   3.922   6.219  0.0582  0.5483 -0.0787
 8482WAT     H134634   4.999   3.891   6.265 -0.2921  1.6694  0.2144
 8482WAT     H234635   5.045   3.904   6.137 -0.5307  0.7591  0.0244
 8482WAT    EPW34636   5.053   3.915   6.214 -0.0568  0.4526  0.1030
 8483WAT      O34637   4.104   2.587   6.160  0.0104  0.1098  0.5478
 8483WAT     H134638   4.123   2.672   6.153  0.4625  0.1119  1.5468
 8483WAT     H234639   4.017   2.585   6.148  0.3409  0.2715 -2.6850
 8483WAT    EPW34640   4.094   2.599   6.157 -0.0848 -0.4479  0.0867
 8484WAT      O34641   4.837   6.897   5.183  0.4387  0.0506  0.6252
 8484WAT     H134642   4.845   6.911   5.269 -0.3467 -1.8967  1.0663
 8484WAT     H234643   4.912   6.856   5.163  1.5945  2.3397 -0.1317
 8484WAT    EPW34644   4.849   6.893   5.193 -0.3279  0.1021 -0.2518
 8485WAT      O34645   6.317   2.116   2.720 -0.1908  0.1518 -0.1139
 8485WAT     H134646   6.369   2.180   2.749  0.1630  0.0916 -0.5970
 8485WAT     H234647   6.250   2.117   2.775 -1.5822  2.7592 -1.7088
 8485WAT    EPW34648   6.315   2.125   2.732  0.0098 -0.0463 -0.4281
 8486WAT      O34649   5.523   7.531   1.991 -0.4531 -0.2560  0.1343
 8486WAT     H134650   5.480   7.473   1.942 -2.2470  1.5852 -0.6665
 8486WAT     H234651   5.488   7.521   2.070 -0.1621 -0.8048  0.1971
 8486WAT    EPW34652   5.512   7.521   1.995 -0.3622  0.1027  0.1702
 8487WAT      O34653   7.261   2.958   4.183 -0.3789  0.2212  0.1769
 8487WAT     H134654   7.297   2.956   4.262 -0.5208  0.1024  0.2393
 8487WAT     H234655   7.329   2.970   4.130 -0.3317  0.7214  0.3441
 8487WAT    EPW34656   7.276   2.959   4.187  0.4962  0.5109  0.1159
 8488WAT      O34657   3.970   3.285   0.898  0.0625  0.0793  0.8908
 8488WAT     H134658   3.936   3.242   0.966  0.5548 -0.1268  1.0076
 8488WAT     H234659   3.911   3.347   0.882  0.0202  0.2369  1.6199
 8488WAT    EPW34660   3.956   3.288   0.906 -0.0076  0.0067 -0.2018
 8489WAT      O34661   6.606   7.558   0.486 -0.4327  0.2681  0.3813
 8489WAT     H134662   6.622   7.520   0.563  2.9313 -0.6443 -0.6031
 8489WAT     H234663   6.675   7.536   0.438 -1.5710  2.2322 -2.3910
 8489WAT    EPW34664   6.619   7.549   0.490  0.0774 -0.2498  0.7064
 8490WAT      O34665   2.076   4.599   4.077  0.3956  0.1354  0.1179
 8490WAT     H134666   2.013   4.567   4.129  0.2731 -2.5931 -1.4756
 8490WAT     H234667   2.048   4.679   4.058 -1.0712  0.0940  1.8021
 8490WAT    EPW34668   2.062   4.606   4.082 -0.5993 -0.1350  0.0209
 8491WAT      O34669   6.765   5.465   7.091 -0.3553  0.2984 -0.5444
 8491WAT     H134670   6.718   5.393   7.105 -0.0684  0.3994  1.1884
 8491WAT     H234671   6.715   5.529   7.124 -1.5995  1.2928 -3.9739
 8491WAT    EPW34672   6.751   5.464   7.098 -0.1853  0.0123  0.3096
 8492WAT      O34673   2.674   2.462   6.397  0.6695  0.3616 -0.0484
 8492WAT     H134674   2.631   2.424   6.463  0.0879  2.2956  0.7672
 8492WAT     H234675   2.757   2.462   6.423  0.2562  2.6665  1.6195
 8492WAT    EPW34676   2.680   2.456   6.411 -0.4701  0.4854 -0.1316
 8493WAT      O34677   3.990   0.512   5.642 -0.4905 -0.4235 -0.1712
 8493WAT     H134678   3.977   0.448   5.699 -1.1541 -0.8842 -0.8140
 8493WAT     H234679   4.075   0.508   5.625 -0.2930 -0.2801  0.7771
 8493WAT    EPW34680   4.000   0.502   5.648 -0.0061 -0.1673  0.7204
 8494WAT      O34681   2.906   2.169   4.212  0.4110  0.3144 -0.1070
 8494WAT     H134682   2.861   2.234   4.249  1.7512  0.2647  1.7405
 8494WAT     H234683   2.845   2.108   4.197 -0.3883  0.8236  0.9554
 8494WAT    EPW34684   2.890   2.170   4.215 -0.2608  0.8560  0.1970
 8495WAT      O34685   3.791   6.128   5.267  0.1395 -0.0892 -0.2344
 8495WAT     H134686   3.764   6.144   5.349 -0.5691 -1.3799 -0.1813
 8495WAT     H234687   3.853   6.188   5.254 -0.0121  0.4045  1.1062
 8495WAT    EPW34688   3.796   6.139   5.277  0.5220 -0.0948  0.4112
 8496WAT      O34689   4.442   0.513   4.203  0.0559 -0.1077  0.1930
 8496WAT     H134690   4.474   0.450   4.151 -0.7074 -0.9828  0.7350
 8496WAT     H234691   4.441   0.584   4.152 -2.9593 -1.4243 -1.8973
 8496WAT    EPW34692   4.446   0.514   4.188 -0.5742  0.0829  0.3791
 8497WAT      O34693   6.395   7.191   4.374 -0.4018  0.2387 -0.2147
 8497WAT     H134694   6.438   7.266   4.371 -0.0371  0.0149 -0.7067
 8497WAT     H234695   6.397   7.162   4.292 -0.2988 -0.4365  0.0126
 8497WAT    EPW34696   6.401   7.198   4.362  0.0375  0.0491 -0.1511
 8498WAT      O34697   1.508   0.936   7.411 -0.1323  0.4108  0.2553
 8498WAT     H134698   1.557   0.865   7.422 -0.5636  0.2377  1.1447
 8498WAT     H234699   1.566   0.999   7.394  0.1278 -0.6128 -3.5059
 8498WAT    EPW34700   1.524   0.935   7.410  0.3250 -0.4749 -0.0343
 8499WAT      O34701   1.846   0.176   2.627 -0.2520 -0.4490  0.2695
 8499WAT     H134702   1.919   0.127   2.628  0.8782  1.1402  0.4027
 8499WAT     H234703   1.869   0.247   2.672 -1.3569  0.8332 -1.0899
 8499WAT    EPW34704   1.860   0.179   2.634  0.0220  0.2985  0.0088
 8500WAT      O34705   7.075   5.525   1.577 -0.1558 -0.2778  0.0915
 8500WAT     H134706   7.059   5.440   1.568  0.6488 -0.4708  0.4544
 8500WAT     H234707   6.998   5.562   1.556 -1.2579 -1.1865  2.1441
 8500WAT    EPW34708   7.061   5.518   1.573  0.5013 -0.2700  0.2362
 8501WAT      O34709   6.847   7.124   4.343  0.1518  0.1290  0.9718
 8501WAT     H134710   6.923   7.091   4.370  0.9906  0.8883 -0.3831
 8501WAT     H234711   6.821   7.173   4.411  1.5429  0.9066  0.9884
 8501WAT    EPW34712   6.854   7.127   4.357  0.3403  0.3692  0.3596
 8502WAT      O34713   1.893   3.001   2.234 -0.2098  0.0106 -0.0168
 8502WAT     H134714   1.969   3.041   2.221  0.7182 -1.0154  1.7396
 8502WAT     H234715   1.848   3.058   2.282 -0.0268  0.1215  0.0258
 8502WAT    EPW34716   1.898   3.015   2.239  0.3311 -0.0900 -0.1721
 8503WAT      O34717   3.352   5.517   2.996 -0.3806 -0.6390  1.1993
 8503WAT     H134718   3.407   5.582   3.015 -2.0629  0.5537  2.2888
 8503WAT     H234719   3.396   5.446   3.018  1.2232  0.1520  0.7388
 8503WAT    EPW34720   3.366   5.516   3.002 -1.1784  0.3924  0.0757
 8504WAT      O34721   3.395   4.726   6.394  0.2137 -0.1989 -0.3448
 8504WAT     H134722   3.343   4.772   6.342 -3.1213 -0.3370  2.4677
 8504WAT     H234723   3.376   4.643   6.374  0.3744 -0.2711 -0.2052
 8504WAT    EPW34724   3.384   4.720   6.383 -0.7024  0.2568 -0.0977
 8505WAT      O34725   7.193   2.109   1.851  0.5183  0.2416 -0.6426
 8505WAT     H134726   7.197   2.023   1.840  0.3078  0.1959 -0.3739
 8505WAT     H234727   7.249   2.125   1.916 -0.3672  0.1470  0.1541
 8505WAT    EPW34728   7.202   2.099   1.859  0.0979 -0.4646 -0.6512
 8506WAT      O34729   6.122   5.294   7.579 -0.7434 -0.6685  0.4100
 8506WAT     H134730   6.183   5.232   7.575 -1.2243 -1.0798 -1.3357
 8506WAT     H234731   6.104   5.311   7.496 -1.7013  0.7698  0.8684
 8506WAT    EPW34732   6.128   5.287   7.566 -0.3487 -0.4560 -0.4635
 8507WAT      O34733   0.593   5.654   0.231 -0.1940  0.3249 -0.1012
 8507WAT     H134734   0.641   5.611   0.172  1.4551  2.0209 -0.0811
 8507WAT     H234735   0.512   5.645   0.201  0.6858  2.5467 -3.7217
 8507WAT    EPW34736   0.588   5.646   0.218 -0.1574  0.4683 -0.0006
 8508WAT      O34737   4.793   5.386   2.867  0.0396  0.1738 -0.4879
 8508WAT     H134738   4.793   5.356   2.949  1.0352  0.9052 -0.1924
 8508WAT     H234739   4.772   5.470   2.876 -1.4331 -0.0915 -1.1709
 8508WAT    EPW34740   4.790   5.394   2.881  0.3203  0.2807  0.3220
 8509WAT      O34741   2.116   5.337   6.252 -0.2268  0.2845  0.6486
 8509WAT     H134742   2.155   5.274   6.299 -0.9324 -1.0996 -0.5591
 8509WAT     H234743   2.062   5.375   6.310  1.0280  0.5813  1.6847
 8509WAT    EPW34744   2.114   5.333   6.268 -0.9503  0.3911 -0.3536
 8510WAT      O34745   7.424   6.627   0.895 -0.4543 -0.5393 -0.4259
 8510WAT     H134746   7.345   6.613   0.860  0.1612 -0.8418 -1.7582
 8510WAT     H234747   7.453   6.697   0.851  0.4459 -1.0769 -0.7171
 8510WAT    EPW34748   7.417   6.636   0.883  0.0445  0.3860 -0.5836
 8511WAT      O34749   5.870   5.499   7.161 -0.2205 -0.0496  0.0369
 8511WAT     H134750   5.889   5.562   7.217  0.5576 -0.7106  0.5460
 8511WAT     H234751   5.823   5.539   7.099  0.2115  0.9982  0.3734
 8511WAT    EPW34752   5.866   5.514   7.160 -0.3837 -0.3372 -0.3707
 8512WAT      O34753   6.083   5.549   1.893 -0.4379  0.1939 -0.2424
 8512WAT     H134754   6.006   5.525   1.860  0.1253 -1.2018 -0.6310
 8512WAT     H234755   6.104   5.619   1.846 -2.3548  1.8844  1.2303
 8512WAT    EPW34756   6.075   5.556   1.881 -0.5690  0.3104 -0.4664
 8513WAT      O34757   6.016   2.108   0.999  1.0754  0.3925  0.2823
 8513WAT     H134758   6.013   2.077   0.918 -2.7740 -0.1253  0.4191
 8513WAT     H234759   6.022   2.036   1.048 -1.2245  0.2678  0.4661
 8513WAT    EPW34760   6.017   2.093   0.994  0.0465 -0.5032  0.2691
 8514WAT      O34761   2.425   0.140   0.053 -0.4228 -0.1102 -0.1022
 8514WAT     H134762   2.473   0.141  -0.020 -0.3251 -0.3327 -0.0415
 8514WAT     H234763   2.479   0.170   0.114 -0.8513  1.1964 -0.3247
 8514WAT    EPW34764   2.440   0.145   0.051 -0.0015 -0.3017 -0.2456
 8515WAT      O34765   0.235   5.885   3.941 -0.1562 -0.3747 -0.4574
 8515WAT     H134766   0.268   5.812   3.907 -0.9236  0.1487 -2.4356
 8515WAT     H234767   0.306   5.931   3.963  0.3406 -1.1977 -0.3020
 8515WAT    EPW34768   0.251   5.881   3.939  0.4001  0.1343  0.1523
 8516WAT      O34769   1.423   3.038   6.078 -0.4157 -0.0604 -0.1662
 8516WAT     H134770   1.430   3.064   6.161 -1.8269 -0.1006 -0.0108
 8516WAT     H234771   1.373   2.967   6.082 -0.8989  0.2075 -1.0879
 8516WAT    EPW34772   1.417   3.031   6.091  0.8678 -0.4066  0.1489
 8517WAT      O34773   5.575   7.004   7.589  0.2749  0.3556 -0.4535
 8517WAT     H134774   5.643   7.037   7.546  0.4371  0.1079 -0.3879
 8517WAT     H234775   5.524   6.973   7.525  0.9008 -0.7514 -0.4401
 8517WAT    EPW34776   5.578   7.004   7.573  0.4679 -0.1892  0.0708
 8518WAT      O34777   5.539   2.118   4.540  0.3518  0.2649 -0.1606
 8518WAT     H134778   5.491   2.180   4.502 -1.8898 -0.3122  1.5175
 8518WAT     H234779   5.613   2.159   4.561 -1.2160  2.5994  1.3288
 8518WAT    EPW34780   5.543   2.133   4.538  0.6260  0.1344 -0.2591
 8519WAT      O34781   3.954   2.347   6.600 -0.1820  0.1809  0.1468
 8519WAT     H134782   3.873   2.376   6.584 -0.2727 -0.8651 -1.5351
 8519WAT     H234783   4.004   2.399   6.552 -0.0001 -0.0414  0.0922
 8519WAT    EPW34784   3.949   2.359   6.591 -0.1443  0.2306  0.4906
 8520WAT      O34785   6.362   2.700   6.319  0.1757  0.5361  0.2761
 8520WAT     H134786   6.284   2.662   6.314 -0.0984  1.2858 -2.3418
 8520WAT     H234787   6.395   2.668   6.393 -2.2607 -0.4237  1.0516
 8520WAT    EPW34788   6.356   2.689   6.329 -0.1303 -0.3613 -0.5124
 8521WAT      O34789   6.933   4.135   3.366 -0.0941 -0.2489  0.5403
 8521WAT     H134790   6.973   4.190   3.421  2.0881  0.4090 -1.5131
 8521WAT     H234791   6.878   4.186   3.322  0.9886  0.0828 -0.4768
 8521WAT    EPW34792   6.931   4.150   3.368  0.1243 -0.5355  0.4344
 8522WAT      O34793   3.504   6.143   0.326  0.4010 -0.2408 -0.0975
 8522WAT     H134794   3.574   6.132   0.376  1.8085 -0.1815 -1.9320
 8522WAT     H234795   3.489   6.229   0.330 -0.8328 -0.4832  1.8161
 8522WAT    EPW34796   3.512   6.154   0.334  0.1858  0.0220 -0.1457
 8523WAT      O34797   2.106   0.817   6.027  0.0223 -0.2085 -0.1840
 8523WAT     H134798   2.127   0.734   6.009 -3.1307 -1.7875  2.3006
 8523WAT     H234799   2.092   0.852   5.949  2.3479 -1.6430 -1.3704
 8523WAT    EPW34800   2.107   0.810   6.013  0.3115 -0.7468 -0.7468
 8524WAT      O34801   6.415   3.518   5.664 -0.0740 -0.6494 -0.8812
 8524WAT     H134802   6.385   3.517   5.746 -1.2443 -0.4003 -1.2921
 8524WAT     H234803   6.470   3.585   5.663 -0.6306 -0.1751 -0.4865
 8524WAT    EPW34804   6.419   3.527   5.676  0.2384  0.1014 -0.5367
 8525WAT      O34805   6.960   3.747   2.248 -0.1757 -0.9626 -0.4199
 8525WAT     H134806   6.976   3.820   2.203  2.7297 -0.4127  1.2454
 8525WAT     H234807   7.038   3.727   2.282 -1.0316 -4.4268 -0.1398
 8525WAT    EPW34808   6.974   3.755   2.246 -0.3274 -0.4470 -0.0797
 8526WAT      O34809   2.148   1.591   5.764  0.2532 -0.6605 -0.3991
 8526WAT     H134810   2.161   1.678   5.763  1.3396 -0.8176 -0.4961
 8526WAT     H234811   2.086   1.580   5.703  0.5584 -0.0215 -0.8413
 8526WAT    EPW34812   2.141   1.602   5.755 -0.0056 -0.6633 -0.1483
 8527WAT      O34813   2.276   5.639   5.225 -0.7600 -0.0873 -0.0780
 8527WAT     H134814   2.228   5.682   5.284 -1.8562 -1.0254 -0.2438
 8527WAT     H234815   2.333   5.594   5.274  0.7381  1.8798  0.0694
 8527WAT    EPW34816   2.277   5.638   5.241 -0.2092  0.2650 -0.1781
 8528WAT      O34817   0.730   2.743   1.796  0.0653  0.5406 -0.9855
 8528WAT     H134818   0.654   2.776   1.821 -0.1606 -0.9356  0.5484
 8528WAT     H234819   0.720   2.657   1.810  1.8803  0.2763 -1.0737
 8528WAT    EPW34820   0.718   2.735   1.802  0.0086 -0.0454 -0.0537
 8529WAT      O34821   0.947   6.503   5.558 -0.3356  0.1251  0.0254
 8529WAT     H134822   1.020   6.537   5.524  0.3955  0.2103  1.6110
 8529WAT     H234823   0.907   6.572   5.594 -0.5342 -0.1352  0.3096
 8529WAT    EPW34824   0.952   6.518   5.558  0.1866  0.6273  0.2090
 8530WAT      O34825   7.131   7.317   2.401  0.0691  0.1437  0.6634
 8530WAT     H134826   7.177   7.340   2.331  0.9894 -1.7688  0.5944
 8530WAT     H234827   7.189   7.321   2.466  0.1248 -1.3841  0.7272
 8530WAT    EPW34828   7.146   7.321   2.400 -0.2788  0.5294  0.4454
 8531WAT      O34829   0.369   5.364   2.476 -0.5168  0.4488  0.5796
 8531WAT     H134830   0.375   5.372   2.563  0.0724 -0.6227  0.6638
 8531WAT     H234831   0.427   5.423   2.447  1.2042 -0.9034  1.0344
 8531WAT    EPW34832   0.379   5.374   2.485  0.0873 -0.0535 -0.7543
 8532WAT      O34833   1.776   0.156   0.202  0.1802 -0.3271  0.0524
 8532WAT     H134834   1.695   0.161   0.234 -0.6517  0.7403 -2.0127
 8532WAT     H234835   1.798   0.240   0.190  0.1264 -0.6242 -2.7030
 8532WAT    EPW34836   1.767   0.169   0.205  0.4970  0.9341 -0.5949
 8533WAT      O34837   0.107   1.893   0.174 -0.1412 -0.1988  0.4169
 8533WAT     H134838   0.175   1.945   0.191 -0.2051  0.9326 -2.2374
 8533WAT     H234839   0.046   1.949   0.147 -1.3384 -1.4000  0.5681
 8533WAT    EPW34840   0.108   1.909   0.172  0.3345 -0.3988 -0.1905
 8534WAT      O34841   3.501   5.020   1.388 -0.7376 -0.2430  0.1064
 8534WAT     H134842   3.467   5.099   1.372  0.6398  0.9400  2.5181
 8534WAT     H234843   3.534   5.028   1.468  1.1502 -2.7056 -0.3299
 8534WAT    EPW34844   3.501   5.033   1.397 -0.4724  0.1389  0.2532
 8535WAT      O34845   1.761   0.873   0.451 -0.6194  0.0493 -0.4429
 8535WAT     H134846   1.844   0.895   0.465 -0.6693  0.4509 -0.7498
 8535WAT     H234847   1.725   0.878   0.530  0.4711 -4.0426  0.5662
 8535WAT    EPW34848   1.768   0.877   0.465 -0.0189  0.7212  0.8551
 8536WAT      O34849   0.432   6.103   7.287 -0.1323 -0.0495  0.7173
 8536WAT     H134850   0.461   6.022   7.302 -1.7984 -0.4433  2.1595
 8536WAT     H234851   0.367   6.091   7.230  0.7616  0.5204 -0.4620
 8536WAT    EPW34852   0.427   6.089   7.281  0.1588  0.2045 -0.2998
 8537WAT      O34853   7.468   1.410   6.020  0.0968  0.6683  0.0912
 8537WAT     H134854   7.403   1.369   6.061  0.6305  0.2747  0.5441
 8537WAT     H234855   7.539   1.365   6.042  0.5353  1.1035 -0.3904
 8537WAT    EPW34856   7.469   1.398   6.029 -0.1739  0.0536  0.6673
 8538WAT      O34857   5.599   3.819   2.328  0.1230  0.8570 -0.4555
 8538WAT     H134858   5.614   3.788   2.248 -1.1648 -0.5239 -0.2196
 8538WAT     H234859   5.577   3.747   2.373  0.2280  1.6958  0.9805
 8538WAT    EPW34860   5.598   3.804   2.323  0.0534  0.2589 -0.1676
 8539WAT      O34861   2.939   0.053   3.874 -0.2823 -0.1787  0.2197
 8539WAT     H134862   2.942   0.049   3.787  1.4109  0.9185  0.1811
 8539WAT     H234863   2.922   0.136   3.891  0.1033 -0.2319  0.9393
 8539WAT    EPW34864   2.937   0.064   3.864 -0.2602 -0.1028 -0.0089
 8540WAT      O34865   0.091   0.743   6.422 -0.1857 -0.3064  0.1649
 8540WAT     H134866   0.052   0.703   6.489 -0.3076  2.1669  1.7287
 8540WAT     H234867   0.041   0.812   6.408  2.6449  2.2193  1.2822
 8540WAT    EPW34868   0.078   0.747   6.430 -0.8211 -0.3302 -0.1490
 8541WAT      O34869   2.369   4.226   6.692 -0.0951  0.2850  0.3196
 8541WAT     H134870   2.360   4.207   6.777  0.8713  0.0404  0.3818
 8541WAT     H234871   2.455   4.229   6.681 -0.1769 -0.8830 -0.9200
 8541WAT    EPW34872   2.380   4.224   6.703 -0.1033  0.2973  0.1081
 8542WAT      O34873   4.166   4.248   0.116 -0.4947 -0.4881 -0.2649
 8542WAT     H134874   4.154   4.166   0.087  2.7751 -0.8721 -0.8604
 8542WAT     H234875   4.178   4.294   0.042  1.2388 -0.1850  0.1793
 8542WAT    EPW34876   4.166   4.243   0.101 -0.0216 -0.6115  0.4457
 8543WAT      O34877   2.855   2.097   6.352 -0.3526  0.1964 -0.0805
 8543WAT     H134878   2.900   2.168   6.328 -0.0895 -0.7647 -2.8423
 8543WAT     H234879   2.907   2.058   6.410  1.9361 -0.2244 -2.2121
 8543WAT    EPW34880   2.869   2.102   6.357 -0.3271 -0.5209 -0.5998
 8544WAT      O34881   1.490   3.345   4.667  0.0258 -0.1273 -0.4846
 8544WAT     H134882   1.531   3.298   4.606 -0.5198 -0.3948 -0.6502
 8544WAT     H234883   1.528   3.424   4.661  1.5853 -0.7650  0.4159
 8544WAT    EPW34884   1.502   3.350   4.657 -0.2042 -0.7055 -0.1642
 8545WAT      O34885   5.484   4.997   5.876  0.1165  0.5529  0.3960
 8545WAT     H134886   5.518   5.076   5.883  1.3855 -0.0398  1.2461
 8545WAT     H234887   5.519   4.966   5.802  1.3696 -0.0001  1.1918
 8545WAT    EPW34888   5.494   5.004   5.866 -0.1472  0.0187  0.1283
 8546WAT      O34889   2.661   7.231   0.007  0.5343 -0.2400 -0.1382
 8546WAT     H134890   2.595   7.197   0.052 -0.4937  1.3738 -0.3440
 8546WAT     H234891   2.731   7.186   0.035 -0.4563 -1.1263  1.0135
 8546WAT    EPW34892   2.662   7.219   0.018 -0.0530 -0.9361 -0.4553
 8547WAT      O34893   4.023   3.887   1.073  0.3194 -0.1483 -0.4267
 8547WAT     H134894   3.947   3.887   1.115 -0.1587  1.6100 -1.1913
 8547WAT     H234895   4.082   3.877   1.137 -0.3855  2.3670  0.7366
 8547WAT    EPW34896   4.021   3.886   1.089  0.0308  0.3443 -0.0138
 8548WAT      O34897   7.478   4.669   0.736 -0.0841 -0.3849 -0.1573
 8548WAT     H134898   7.523   4.598   0.714  1.6316  0.7518 -0.5033
 8548WAT     H234899   7.400   4.656   0.699  0.2873 -1.9163 -0.4822
 8548WAT    EPW34900   7.473   4.657   0.727 -0.2734 -0.3136 -0.4087
 8549WAT      O34901   6.632   0.906   3.129  0.2330  0.2811  0.4690
 8549WAT     H134902   6.582   0.897   3.199  1.4298  0.1685  1.3337
 8549WAT     H234903   6.581   0.878   3.064 -0.4026 -1.0053  1.4698
 8549WAT    EPW34904   6.617   0.901   3.129 -0.6232  0.3396  0.0794
 8550WAT      O34905   0.077   3.348   0.717  0.0325 -0.0868 -0.5502
 8550WAT     H134906   0.148   3.346   0.767 -0.5406  1.0111  0.3536
 8550WAT     H234907   0.092   3.415   0.663 -0.2390  0.0224 -0.4895
 8550WAT    EPW34908   0.090   3.357   0.716 -0.1246  0.4804  0.1344
 8551WAT      O34909   5.318   6.721   2.323 -0.4787 -0.4706  0.4027
 8551WAT     H134910   5.340   6.756   2.400 -0.2666 -1.1891  0.6800
 8551WAT     H234911   5.387   6.670   2.304 -0.3670 -0.0106 -0.4447
 8551WAT    EPW34912   5.332   6.719   2.332 -0.2522 -0.0275 -0.2365
 8552WAT      O34913   0.508   6.627   5.682  0.8659  0.3126  0.7413
 8552WAT     H134914   0.508   6.583   5.607  1.3457 -0.9476  1.4579
 8552WAT     H234915   0.579   6.678   5.675 -0.2965  1.8434 -0.5457
 8552WAT    EPW34916   0.519   6.628   5.670 -0.5314  0.0389 -0.4480
 8553WAT      O34917   2.858   6.380   5.313  0.1000  0.3970 -0.3254
 8553WAT     H134918   2.933   6.405   5.349 -0.2058  1.4081 -0.3418
 8553WAT     H234919   2.808   6.452   5.319 -1.2693 -0.5920  0.7475
 8553WAT    EPW34920   2.862   6.395   5.319 -0.0574  0.0745 -0.2210
 8554WAT      O34921   3.730   4.131   2.935 -0.4407 -0.3043 -1.4481
 8554WAT     H134922   3.797   4.075   2.928  0.3960  0.8175 -2.9533
 8554WAT     H234923   3.745   4.171   3.012  0.8311  0.1560 -1.9108
 8554WAT    EPW34924   3.742   4.129   2.946  0.3213 -0.1337 -0.7264
 8555WAT      O34925   7.265   3.217   5.841  0.2837 -0.2110 -0.0508
 8555WAT     H134926   7.315   3.161   5.796  0.5945  0.0871 -0.0791
 8555WAT     H234927   7.191   3.220   5.795  0.7663  0.4588 -0.8240
 8555WAT    EPW34928   7.261   3.209   5.828 -0.1825  0.2282 -0.0374
 8556WAT      O34929   2.898   1.226   4.496  0.0327  0.1211  0.2801
 8556WAT     H134930   2.975   1.188   4.480 -1.0976 -3.2622  1.8633
 8556WAT     H234931   2.842   1.182   4.446 -1.2166  0.8371  0.9882
 8556WAT    EPW34932   2.901   1.214   4.486  0.1342  0.0513 -0.4883
 8557WAT      O34933   0.532   1.276   1.139 -0.4306 -0.2100 -0.1141
 8557WAT     H134934   0.543   1.311   1.218 -1.5957  0.8276 -0.3843
 8557WAT     H234935   0.498   1.198   1.156 -2.4205  0.7021  0.4219
 8557WAT    EPW34936   0.529   1.270   1.153 -0.0681 -0.1328  1.0237
 8558WAT      O34937   1.740   5.718   5.941 -0.0773  0.3507 -0.2522
 8558WAT     H134938   1.795   5.679   5.997  0.1820 -0.4070 -1.0170
 8558WAT     H234939   1.748   5.671   5.868 -0.7707  1.0326 -0.7841
 8558WAT    EPW34940   1.749   5.706   5.939 -0.0251  0.5698 -0.5252
 8559WAT      O34941   4.392   5.025   5.968  0.9157 -0.0316 -0.4038
 8559WAT     H134942   4.463   4.993   6.007 -0.0108 -1.8970 -0.1095
 8559WAT     H234943   4.327   5.001   6.021  0.0627  1.8223 -0.5449
 8559WAT    EPW34944   4.393   5.017   5.981  0.0038  0.4053  0.5858
 8560WAT      O34945   5.982   7.475   7.328 -0.5067  0.2986 -0.1358
 8560WAT     H134946   5.903   7.439   7.329  0.8733 -3.2219 -1.5624
 8560WAT     H234947   5.997   7.491   7.243  0.6140  0.1294  0.0103
 8560WAT    EPW34948   5.973   7.472   7.316  0.5925  0.0985  0.1426
 8561WAT      O34949   4.574   0.314   0.772 -0.0393  0.0712  0.0798
 8561WAT     H134950   4.619   0.331   0.845  0.2944 -0.4114 -0.0159
 8561WAT     H234951   4.629   0.336   0.708 -0.7707  1.6987 -0.0468
 8561WAT    EPW34952   4.589   0.320   0.774 -0.4526  0.2439  0.8075
 8562WAT      O34953   3.597   0.772   1.160  0.0181 -0.0402 -0.6754
 8562WAT     H134954   3.526   0.735   1.126 -0.4364  0.1726  0.0323
 8562WAT     H234955   3.585   0.857   1.145 -0.5241  0.1237  0.6245
 8562WAT    EPW34956   3.585   0.779   1.153 -0.0349  0.4494 -0.1014
 8563WAT      O34957   5.267   4.076   0.032 -0.3156  0.4631 -0.0754
 8563WAT     H134958   5.206   4.022   0.001  0.3847 -0.4487  0.1074
 8563WAT     H234959   5.331   4.023   0.058 -0.5730  1.2123  2.3159
 8563WAT    EPW34960   5.268   4.060   0.031  0.0815 -0.1396  0.0684
 8564WAT      O34961   1.105   2.489   2.458 -0.3212  0.7024  0.1396
 8564WAT     H134962   1.092   2.574   2.472  0.1708  0.8498 -0.2486
 8564WAT     H234963   1.174   2.488   2.404 -0.8719  0.0902 -0.5781
 8564WAT    EPW34964   1.114   2.501   2.452  0.6565  0.0465  0.4688
 8565WAT      O34965   3.298   4.751   0.764 -0.4135  0.4283 -0.3724
 8565WAT     H134966   3.212   4.746   0.776 -0.5151 -0.9835 -1.4817
 8565WAT     H234967   3.307   4.770   0.679  0.3674 -0.7442 -0.5736
 8565WAT    EPW34968   3.287   4.753   0.753 -0.2300 -0.3958 -0.2907
 8566WAT      O34969   1.608   2.030   1.180 -0.0175  0.1055 -0.1950
 8566WAT     H134970   1.635   2.013   1.261 -1.4389  2.0745  0.7773
 8566WAT     H234971   1.658   2.097   1.155  0.6017 -0.6590 -1.1108
 8566WAT    EPW34972   1.619   2.037   1.188  0.6967  0.0075 -0.0944
 8567WAT      O34973   6.963   4.949   2.946 -0.1773 -0.2434  0.3880
 8567WAT     H134974   6.881   4.953   2.974 -0.2970  0.4672 -0.0382
 8567WAT     H234975   7.004   5.012   2.990 -0.2098  0.4078 -0.4955
 8567WAT    EPW34976   6.957   4.959   2.956 -0.3444 -0.0407 -0.0360
 8568WAT      O34977   4.089   6.734   6.154  0.4755  0.1025  0.0835
 8568WAT     H134978   4.086   6.821   6.151 -0.2464  0.0630 -0.5717
 8568WAT     H234979   4.160   6.717   6.203  0.4564  1.0513  0.4461
 8568WAT    EPW34980   4.099   6.744   6.161  0.5585  0.2049  0.1090
 8569WAT      O34981   3.878   1.680   5.460  0.0537  0.2896 -0.0824
 8569WAT     H134982   3.813   1.738   5.465 -0.1852  0.0913 -0.8118
 8569WAT     H234983   3.950   1.729   5.466 -0.1455  0.6723 -0.7815
 8569WAT    EPW34984   3.879   1.696   5.462  0.7072 -0.6909  0.2375
 8570WAT      O34985   5.536   6.213   4.934  0.3798 -0.0373 -0.0018
 8570WAT     H134986   5.474   6.184   4.988  0.2124 -2.8388 -1.5244
 8570WAT     H234987   5.505   6.192   4.855  1.5329  2.0767 -1.1069
 8570WAT    EPW34988   5.522   6.206   4.930  0.3388  0.6882 -0.1852
 8571WAT      O34989   1.480   3.297   5.737 -0.1305  0.1829  0.5290
 8571WAT     H134990   1.402   3.329   5.756 -0.6245 -0.3822 -0.4761
 8571WAT     H234991   1.534   3.341   5.789 -1.0344  1.0842  0.7166
 8571WAT    EPW34992   1.477   3.308   5.748 -0.1201  0.6794  0.1966
 8572WAT      O34993   3.988   1.148   3.191  0.1703  0.1469 -1.0388
 8572WAT     H134994   3.994   1.070   3.153 -0.4803 -1.3371  1.6606
 8572WAT     H234995   3.906   1.152   3.220  0.8266  0.7586  0.9116
 8572WAT    EPW34996   3.977   1.137   3.189  0.5017  0.0169  0.0197
 8573WAT      O34997   4.583   2.629   0.885 -0.4944  0.2380  0.1770
 8573WAT     H134998   4.506   2.668   0.872 -0.5994 -0.2696 -0.7568
 8573WAT     H234999   4.582   2.561   0.831  0.1864 -0.3869  0.9198
 8573WAT    EPW35000   4.571   2.625   0.875 -0.2729 -0.2015 -0.3809
 8574WAT      O35001   5.330   5.626   3.025 -0.1989  0.2852 -0.3323
 8574WAT     H135002   5.307   5.610   2.942 -0.3055 -1.3485 -0.0139
 8574WAT     H235003   5.260   5.665   3.059 -1.4771 -2.0179 -0.1604
 8574WAT    EPW35004   5.317   5.629   3.018 -0.3388  0.0413  0.3453
 8575WAT      O35005   5.195   3.144   1.342  0.2288 -0.2647 -0.3677
 8575WAT     H135006   5.147   3.195   1.394  2.7646  2.0858 -0.0971
 8575WAT     H235007   5.153   3.067   1.344 -1.5566  0.6195  2.5365
 8575WAT    EPW35008   5.182   3.140   1.350 -0.1037 -0.2611  0.5177
 8576WAT      O35009   0.343   3.850   0.520  0.1882 -0.1150  0.1052
 8576WAT     H135010   0.317   3.882   0.443  2.7035 -0.2449 -0.9017
 8576WAT     H235011   0.361   3.766   0.502  2.0436  0.1592  0.4078
 8576WAT    EPW35012   0.342   3.842   0.506  0.3961  0.1541  0.6069
 8577WAT      O35013   2.245   2.436   0.103  0.4743 -0.2596  0.1846
 8577WAT     H135014   2.291   2.510   0.101 -1.0514  0.8066  1.8962
 8577WAT     H235015   2.296   2.380   0.059  3.2917  0.8930  1.6907
 8577WAT    EPW35016   2.259   2.438   0.096 -0.5636  0.3587 -0.1844
 8578WAT      O35017   0.347   1.861   5.756 -0.3406  0.0939  0.0367
 8578WAT     H135018   0.324   1.932   5.711  0.8294 -0.3013 -1.2523
 8578WAT     H235019   0.359   1.891   5.837 -0.8836  1.1628 -0.2643
 8578WAT    EPW35020   0.346   1.876   5.761 -0.3348 -0.1104  0.4779
 8579WAT      O35021   5.465   5.317   4.305 -0.6203  0.2678 -0.6317
 8579WAT     H135022   5.545   5.285   4.311 -1.2019 -1.3009 -0.9512
 8579WAT     H235023   5.441   5.299   4.223 -2.2772 -1.7593  0.2177
 8579WAT    EPW35024   5.473   5.310   4.294  0.0473 -0.5505 -0.5272
 8580WAT      O35025   3.350   1.544   4.423  0.0068 -0.1863  0.6040
 8580WAT     H135026   3.276   1.527   4.381 -0.2786  1.0649  0.5610
 8580WAT     H235027   3.334   1.621   4.463  1.3571  0.2401  0.3725
 8580WAT    EPW35028   3.337   1.553   4.423 -0.3889  0.6811  0.7084
 8581WAT      O35029   6.605   6.852   1.786  0.2817 -0.6708  0.4273
 8581WAT     H135030   6.570   6.840   1.707  0.4324 -0.5004  0.3355
 8581WAT     H235031   6.606   6.939   1.795  2.9157 -0.5121 -0.5745
 8581WAT    EPW35032   6.600   6.863   1.776  0.2255 -0.1260 -0.5155
 8582WAT      O35033   0.185   5.445   2.036 -0.2424 -0.6349  0.5356
 8582WAT     H135034   0.166   5.398   2.107  1.1465  0.7899  1.9266
 8582WAT     H235035   0.271   5.437   2.029 -0.0780  1.0219  0.3356
 8582WAT    EPW35036   0.195   5.437   2.045 -0.2916  0.1072 -0.1246
 8583WAT      O35037  -0.012   4.375   2.344 -0.2374  0.2984  0.3577
 8583WAT     H135038   0.049   4.346   2.400 -1.4258  0.8048  1.9994
 8583WAT     H235039   0.003   4.461   2.340 -0.8817  0.4369  0.8363
 8583WAT    EPW35040  -0.001   4.384   2.352 -0.4687  0.5434  0.2818
 8584WAT      O35041   2.885   4.619   6.730  0.6461  0.1685  0.0172
 8584WAT     H135042   2.822   4.678   6.720  0.7982  0.3833  0.2759
 8584WAT     H235043   2.956   4.668   6.745  0.8352 -0.0732 -0.0844
 8584WAT    EPW35044   2.886   4.635   6.731 -0.0007  0.2088  0.4692
 8585WAT      O35045   0.059   2.137   4.163 -0.6741 -0.3164 -0.2980
 8585WAT     H135046   0.115   2.070   4.164 -1.1120 -0.7012 -0.8942
 8585WAT     H235047   0.078   2.181   4.236 -0.9312 -1.5542  0.5354
 8585WAT    EPW35048   0.070   2.134   4.174  0.1217  0.0381 -0.6770
 8586WAT      O35049   6.424   1.276   3.906  0.4321 -0.3429 -0.2351
 8586WAT     H135050   6.415   1.195   3.874 -0.1228 -0.1204 -0.6556
 8586WAT     H235051   6.510   1.288   3.907  0.4584  0.0809 -2.7841
 8586WAT    EPW35052   6.435   1.266   3.902  0.2161 -0.0306  0.4312
 8587WAT      O35053   4.448   0.451   1.689 -0.2305 -0.7917  0.5520
 8587WAT     H135054   4.491   0.498   1.630 -0.2793 -1.3953  0.0211
 8587WAT     H235055   4.487   0.373   1.685  0.0643 -0.7205  1.6452
 8587WAT    EPW35056   4.460   0.446   1.679 -1.0123 -0.3056 -0.0538
 8588WAT      O35057   7.558   0.503   3.897  0.0936  0.3266  0.7188
 8588WAT     H135058   7.512   0.572   3.926 -0.9833  0.1654 -0.5118
 8588WAT     H235059   7.612   0.537   3.838  0.3594  0.2669  0.9252
 8588WAT    EPW35060   7.559   0.519   3.893  0.5049  0.0468 -0.1021
 8589WAT      O35061   0.049   6.061   5.638  0.3252  0.2467 -0.3056
 8589WAT     H135062  -0.007   6.035   5.700  0.2885  0.2830 -0.3236
 8589WAT     H235063   0.072   6.141   5.664  2.0249 -0.5531  0.8735
 8589WAT    EPW35064   0.044   6.069   5.651 -0.2382 -0.3422 -0.0097
 8590WAT      O35065   5.388   4.456   5.554 -0.6194 -0.2249 -0.1495
 8590WAT     H135066   5.428   4.384   5.584  1.0052  0.6997  0.0368
 8590WAT     H235067   5.425   4.520   5.601 -3.2113  0.6227  0.8858
 8590WAT    EPW35068   5.400   4.455   5.566  0.1513 -0.2063  0.9015
 8591WAT      O35069   1.039   4.593   3.102  0.8712  0.1367 -0.8485
 8591WAT     H135070   1.079   4.526   3.066  0.5202  0.4491 -1.8577
 8591WAT     H235071   1.104   4.642   3.135  1.1207 -0.6861 -0.0817
 8591WAT    EPW35072   1.054   4.591   3.102 -0.5984 -0.2291 -0.6811
 8592WAT      O35073   4.282   1.168   3.708 -0.1072  0.1664  0.7577
 8592WAT     H135074   4.324   1.129   3.642 -0.8408  0.4299  0.1235
 8592WAT     H235075   4.345   1.212   3.749  0.3815 -0.0874  0.2926
 8592WAT    EPW35076   4.297   1.169   3.704  0.1368 -0.7141  0.8148
 8593WAT      O35077   5.928   0.314   5.066  0.1024  0.2176  0.2173
 8593WAT     H135078   5.974   0.331   5.138 -0.3817  1.2993  0.2799
 8593WAT     H235079   5.976   0.253   5.025 -0.2169 -1.3500  2.0228
 8593WAT    EPW35080   5.942   0.307   5.070  0.6506  0.5191  0.0487
 8594WAT      O35081   5.640   1.215   4.570  0.0104  0.1941  0.4578
 8594WAT     H135082   5.606   1.295   4.561 -0.2530  0.1519  1.0298
 8594WAT     H235083   5.679   1.217   4.648  1.2484  0.2038 -0.1423
 8594WAT    EPW35084   5.641   1.227   4.580  0.1773  0.8951  0.1952
 8595WAT      O35085   2.138   3.405   7.234 -0.0082  0.0608  0.0682
 8595WAT     H135086   2.185   3.374   7.301 -0.5752 -1.1523 -0.0694
 8595WAT     H235087   2.136   3.338   7.178 -1.9556  0.0548  0.0983
 8595WAT    EPW35088   2.145   3.390   7.236  0.2887  0.0023  0.1843
 8596WAT      O35089   1.596   1.606   3.378  0.1686 -0.2681  0.3866
 8596WAT     H135090   1.654   1.543   3.359 -1.7608 -1.9672 -0.2547
 8596WAT     H235091   1.554   1.619   3.303 -2.5551 -1.6278  1.5380
 8596WAT    EPW35092   1.599   1.598   3.364 -0.3070  0.1775  0.0960
 8597WAT      O35093   6.604   3.211   1.556 -0.2645 -0.1212 -0.1254
 8597WAT     H135094   6.586   3.131   1.585  0.6600 -0.1129  0.5381
 8597WAT     H235095   6.538   3.260   1.586  1.2922  0.1590  3.3047
 8597WAT    EPW35096   6.592   3.206   1.564 -0.3879 -0.4953  0.1172
 8598WAT      O35097   0.344   7.096   5.922  0.2437 -0.0383 -0.3540
 8598WAT     H135098   0.403   7.038   5.896  0.6040 -0.0931  0.5502
 8598WAT     H235099   0.313   7.128   5.848 -0.6031 -2.0073 -0.9130
 8598WAT    EPW35100   0.348   7.092   5.907  0.4139 -0.1681 -1.3812
 8599WAT      O35101   7.505   0.230   6.187  0.3168  0.2964  0.3350
 8599WAT     H135102   7.575   0.280   6.195  0.8906 -0.0371 -1.9447
 8599WAT     H235103   7.537   0.149   6.184 -0.2776  0.0456  0.5184
 8599WAT    EPW35104   7.520   0.225   6.188 -0.3470 -0.3267  0.1643
 8600WAT      O35105   4.504   1.738   7.067 -0.0887  0.0823  0.2723
 8600WAT     H135106   4.493   1.741   7.153 -0.5394  0.6041  0.1937
 8600WAT     H235107   4.559   1.804   7.051  0.1714 -0.1512  0.1810
 8600WAT    EPW35108   4.511   1.748   7.077 -0.2579  0.0341  0.1267
 8601WAT      O35109   1.358   6.065   5.951 -0.2311 -0.0688 -0.0040
 8601WAT     H135110   1.419   6.078   5.889  0.2355 -0.9518  0.2603
 8601WAT     H235111   1.404   6.066   6.025 -0.5839 -0.4108  0.2201
 8601WAT    EPW35112   1.374   6.067   5.953  0.1924  0.6455 -0.2456
 8602WAT      O35113   6.437   0.533   0.588 -0.1246  0.0210 -0.2093
 8602WAT     H135114   6.514   0.567   0.566 -0.5132  0.3876 -1.0688
 8602WAT     H235115   6.448   0.447   0.576  0.3298  0.0116  0.2656
 8602WAT    EPW35116   6.450   0.525   0.583 -0.8745  0.2754 -0.3880
 8603WAT      O35117   7.123   2.270   6.508  0.4155  0.1669  0.2608
 8603WAT     H135118   7.066   2.291   6.445 -0.0369 -1.5113  0.0343
 8603WAT     H235119   7.192   2.321   6.493  0.6699 -0.7610 -2.1624
 8603WAT    EPW35120   7.125   2.280   6.496  1.6720  0.3572 -0.0946
 8604WAT      O35121   6.239   2.829   1.370  0.7580  0.1706  0.1851
 8604WAT     H135122   6.323   2.820   1.347  0.0897 -0.7179 -2.2422
 8604WAT     H235123   6.206   2.748   1.359 -0.2598  0.2499  2.0692
 8604WAT    EPW35124   6.246   2.816   1.365 -0.1717 -0.4582  0.3982
 8605WAT      O35125   4.505   3.694   6.964 -0.0648  0.0269  0.0003
 8605WAT     H135126   4.438   3.737   6.929  0.6838  0.2517 -1.2161
 8605WAT     H235127   4.544   3.656   6.896 -0.1135 -1.7971  0.9057
 8605WAT    EPW35128   4.501   3.695   6.949 -0.2205  0.2118  0.2862
 8606WAT      O35129   4.361   6.355   0.313  0.1010 -0.5069  0.3409
 8606WAT     H135130   4.320   6.407   0.257  0.4790 -1.3747 -0.7644
 8606WAT     H235131   4.350   6.395   0.390 -3.0160 -0.8136  0.1751
 8606WAT    EPW35132   4.354   6.368   0.316  0.2459 -0.0200  0.4377
 8607WAT      O35133   3.207   5.998   6.052  0.9267  0.7959 -0.6512
 8607WAT     H135134   3.185   5.926   6.009 -0.3798  0.5163  0.4253
 8607WAT     H235135   3.294   6.000   6.045  0.8927 -0.1984 -1.7392
 8607WAT    EPW35136   3.217   5.988   6.045 -0.6942  0.0086 -0.4306
 8608WAT      O35137   3.499   3.628   0.810 -0.2530  0.2853 -0.5512
 8608WAT     H135138   3.435   3.654   0.758  0.4121  1.9669 -0.5995
 8608WAT     H235139   3.571   3.655   0.768  0.3988 -0.2875  0.1818
 8608WAT    EPW35140   3.500   3.636   0.796  0.0362 -0.2934  0.2929
 8609WAT      O35141   0.883   2.484   2.934 -0.1115 -0.2157 -0.1228
 8609WAT     H135142   0.878   2.566   2.965  0.1101 -0.1911 -0.1475
 8609WAT     H235143   0.962   2.482   2.897  0.0565 -0.5632  0.2431
 8609WAT    EPW35144   0.894   2.496   2.933 -0.0425  0.2333  0.2143
 8610WAT      O35145   4.340   3.714   0.086 -0.1755  0.3369 -0.1627
 8610WAT     H135146   4.256   3.722   0.063  0.3646 -0.9433 -2.9909
 8610WAT     H235147   4.354   3.628   0.083  1.1229  0.4804  0.8723
 8610WAT    EPW35148   4.329   3.703   0.082  0.1238 -1.0957  0.1744
 8611WAT      O35149   0.757   2.720   0.487 -0.0071  0.2057 -0.3775
 8611WAT     H135150   0.704   2.665   0.529 -0.6214  0.8457 -0.3004
 8611WAT     H235151   0.777   2.780   0.547 -1.8919  1.8318 -1.2671
 8611WAT    EPW35152   0.753   2.720   0.502 -0.5380 -0.3719  0.0439
 8612WAT      O35153   3.142   4.000   1.918 -0.4303 -0.0156 -0.1794
 8612WAT     H135154   3.171   4.007   1.836 -0.6454  0.9620 -0.1752
 8612WAT     H235155   3.106   4.077   1.934 -0.4201 -0.2105  0.8351
 8612WAT    EPW35156   3.141   4.012   1.908  0.6480 -0.0075 -0.6126
 8613WAT      O35157   2.689   1.840   4.463 -0.3473 -0.1890 -0.0283
 8613WAT     H135158   2.691   1.899   4.398 -2.0245  2.6271  2.2231
 8613WAT     H235159   2.767   1.850   4.501 -0.9898  1.5312  0.9737
 8613WAT    EPW35160   2.701   1.851   4.459  0.4417 -0.6271 -0.4555
 8614WAT      O35161   6.762   0.969   5.269  0.3983 -0.7986 -0.4003
 8614WAT     H135162   6.758   0.922   5.343  0.7068  2.2407  1.7234
 8614WAT     H235163   6.847   0.988   5.262  0.1854 -0.0059 -0.8567
 8614WAT    EPW35164   6.774   0.965   5.279 -0.1289  0.1113 -0.2425
 8615WAT      O35165   1.505   1.946   2.090 -0.5769  0.3867  0.2315
 8615WAT     H135166   1.429   1.912   2.065 -0.6503  0.0182  0.9246
 8615WAT     H235167   1.543   1.880   2.133  0.5595  0.2334 -0.9228
 8615WAT    EPW35168   1.499   1.931   2.093 -0.2418  0.1156 -0.1130
 8616WAT      O35169   7.029   6.259   2.307 -0.4358  0.3431 -0.4424
 8616WAT     H135170   6.976   6.265   2.376 -0.8691 -0.8270 -0.6430
 8616WAT     H235171   6.974   6.245   2.241  0.1129 -3.7064 -0.2913
 8616WAT    EPW35172   7.013   6.257   2.308 -0.3740  0.0224 -0.3785
 8617WAT      O35173   6.699   5.052   7.130  0.1289  0.2051  0.2813
 8617WAT     H135174   6.654   5.125   7.147  1.1590  1.2043 -1.1011
 8617WAT     H235175   6.637   4.995   7.108 -0.5627  1.4517 -1.2603
 8617WAT    EPW35176   6.683   5.055   7.129 -0.6124  0.0123  0.3179
 8618WAT      O35177   2.630   5.118   3.609  0.7939  0.2955 -0.5559
 8618WAT     H135178   2.621   5.031   3.605  0.6260  0.3453 -1.8922
 8618WAT     H235179   2.621   5.136   3.694 -0.4349 -0.8573 -0.4022
 8618WAT    EPW35180   2.627   5.108   3.621 -0.0043  0.0975  0.1042
 8619WAT      O35181   1.762   6.855   2.741 -0.0640  0.2658 -0.3826
 8619WAT     H135182   1.793   6.921   2.692 -1.1177  0.7288 -0.4468
 8619WAT     H235183   1.696   6.891   2.786 -0.0075 -0.4970  0.3522
 8619WAT    EPW35184   1.757   6.870   2.741  0.2227 -0.7088  0.1985
 8620WAT      O35185   6.717   7.311   1.176  0.2532  0.3486 -0.3383
 8620WAT     H135186   6.746   7.313   1.093  0.0625 -0.8713 -0.4422
 8620WAT     H235187   6.660   7.377   1.178  0.0566  0.2274 -1.2606
 8620WAT    EPW35188   6.713   7.321   1.164  0.1814  0.3176 -0.8889
 8621WAT      O35189   0.165   5.715   5.588  0.1609 -0.4505 -0.0712
 8621WAT     H135190   0.215   5.766   5.636 -1.1766  0.2016  0.6900
 8621WAT     H235191   0.104   5.687   5.644 -0.1017 -1.5292 -0.8599
 8621WAT    EPW35192   0.163   5.718   5.603 -0.0839 -0.6291  0.2580
 8622WAT      O35193   2.350   5.683   5.678  0.2865 -0.0149 -0.4572
 8622WAT     H135194   2.308   5.648   5.611  0.0476 -0.6195 -0.0005
 8622WAT     H235195   2.286   5.721   5.724  0.4784  0.5979 -0.6909
 8622WAT    EPW35196   2.334   5.684   5.675 -0.1647  0.4025  0.1864
 8623WAT      O35197   4.625   3.106   0.227 -0.3236  0.0554 -0.1680
 8623WAT     H135198   4.644   3.021   0.220 -0.4919  0.1057 -1.4878
 8623WAT     H235199   4.702   3.142   0.246  0.0916 -0.2325 -1.1923
 8623WAT    EPW35200   4.639   3.098   0.229 -0.5016 -0.0639  0.3983
 8624WAT      O35201   0.078   5.015   5.725  0.8324  0.4509  0.0344
 8624WAT     H135202   0.021   4.949   5.716  2.6057 -0.9189 -2.6835
 8624WAT     H235203   0.044   5.078   5.675  0.8349  0.2587 -0.2169
 8624WAT    EPW35204   0.064   5.014   5.716  0.2149  0.1212 -0.2640
 8625WAT      O35205   1.670   5.555   0.937 -0.1506  0.1791 -0.8802
 8625WAT     H135206   1.648   5.626   0.982 -0.9452  0.1352 -1.1690
 8625WAT     H235207   1.699   5.587   0.861  1.4346  0.2630 -0.2640
 8625WAT    EPW35208   1.671   5.570   0.932 -0.1809 -0.1917 -0.2123
 8626WAT      O35209   7.580   0.621   0.112 -0.4335  0.2464 -0.0581
 8626WAT     H135210   7.530   0.558   0.078 -1.0865 -0.6296  2.3124
 8626WAT     H235211   7.606   0.588   0.189  1.3324  1.8815  0.1262
 8626WAT    EPW35212   7.576   0.607   0.119  0.0413 -0.0216 -0.2831
 8627WAT      O35213   3.654   7.289   7.168  0.0582  0.1812  0.0489
 8627WAT     H135214   3.604   7.349   7.206 -3.3146 -1.8928 -0.6853
 8627WAT     H235215   3.665   7.319   7.087 -1.3752  0.0555 -0.2313
 8627WAT    EPW35216   3.648   7.302   7.161 -0.0902  0.2507  0.0794
 8628WAT      O35217   0.752   3.458   5.032  0.1363  0.0794 -0.1395
 8628WAT     H135218   0.785   3.517   4.976  0.0637  2.2974  1.9499
 8628WAT     H235219   0.823   3.424   5.069  0.1780 -1.2165 -1.3458
 8628WAT    EPW35220   0.768   3.462   5.029  0.1135 -0.2715  0.3372
 8629WAT      O35221   1.678   1.735   5.054  0.0719  0.6985  0.2162
 8629WAT     H135222   1.614   1.715   5.110  1.2675  0.4367  1.5348
 8629WAT     H235223   1.705   1.658   5.024 -0.6364  0.8408 -0.8582
 8629WAT    EPW35224   1.672   1.721   5.058  0.5650 -0.2023  0.4954
 8630WAT      O35225   3.363   3.097   0.901 -0.2685  0.1057 -0.5511
 8630WAT     H135226   3.430   3.093   0.956 -1.5150 -1.0799  0.9843
 8630WAT     H235227   3.331   3.177   0.912 -0.6069 -0.1752  0.6160
 8630WAT    EPW35228   3.368   3.108   0.911 -0.7142 -0.4003 -0.8036
 8631WAT      O35229   5.440   2.033   5.592 -0.4183 -0.4214  0.2582
 8631WAT     H135230   5.463   2.085   5.526 -1.1556  0.0114  0.3359
 8631WAT     H235231   5.476   2.071   5.662  0.0983 -0.7072  0.1486
 8631WAT    EPW35232   5.449   2.046   5.592  0.2309  0.1232  0.2016
 8632WAT      O35233   6.644   7.423   4.999  0.4326  0.1051 -0.5743
 8632WAT     H135234   6.617   7.477   5.062  0.1457 -3.1558  2.3898
 8632WAT     H235235   6.714   7.464   4.966 -0.4558  2.7685  0.5342
 8632WAT    EPW35236   6.650   7.437   5.003  0.6346  0.1709  0.2568
 8633WAT      O35237   5.998   4.973   1.613  0.0958  0.5190 -0.3618
 8633WAT     H135238   5.930   4.984   1.559 -0.6859  1.7319  0.8168
 8633WAT     H235239   6.013   5.053   1.644  2.2226  0.3308 -0.7196
 8633WAT    EPW35240   5.990   4.987   1.609 -0.4395 -0.0880  0.4003
 8634WAT      O35241   0.849   7.338   3.911 -0.0719  0.2594 -0.2715
 8634WAT     H135242   0.915   7.317   3.963 -0.1536 -1.5651 -0.8165
 8634WAT     H235243   0.888   7.381   3.846  0.2929  0.8969  0.3597
 8634WAT    EPW35244   0.864   7.341   3.909  0.4685  0.2936  0.2253
 8635WAT      O35245   5.946   0.168   1.573  0.1095  0.1554 -0.0469
 8635WAT     H135246   5.922   0.208   1.647 -0.6844 -0.9310  0.3093
 8635WAT     H235247   5.930   0.227   1.511  0.7557  1.0745  0.6245
 8635WAT    EPW35248   5.940   0.183   1.575 -0.1544  0.8987 -0.0525
 8636WAT      O35249   0.288   3.994   0.258 -0.4653 -0.0214 -0.0227
 8636WAT     H135250   0.258   3.999   0.176  0.9639 -0.1433 -0.5721
 8636WAT     H235251   0.365   3.955   0.250 -0.7159 -0.9451  1.5010
 8636WAT    EPW35252   0.295   3.989   0.245 -0.0303 -0.5033  0.1210
 8637WAT      O35253   6.878   6.009   3.200  0.0744  0.0516  0.1534
 8637WAT     H135254   6.941   6.063   3.228  0.1883  0.2268 -0.4337
 8637WAT     H235255   6.804   6.048   3.226  0.2012 -0.1197  0.7811
 8637WAT    EPW35256   6.876   6.023   3.208 -0.0304 -0.0415  0.0628
 8638WAT      O35257   5.662   1.930   0.227  0.0625  0.4229 -0.5537
 8638WAT     H135258   5.606   1.880   0.183  0.4134  0.3996 -0.9906
 8638WAT     H235259   5.724   1.874   0.252 -1.3239 -0.0580  2.1545
 8638WAT    EPW35260   5.663   1.914   0.224  0.1764  0.4084  0.3454
 8639WAT      O35261   3.229   6.680   4.909  0.3815  0.4045  0.6076
 8639WAT     H135262   3.307   6.665   4.945  0.2097  0.6220  1.0767
 8639WAT     H235263   3.225   6.767   4.903 -0.4445  0.5080  2.0324
 8639WAT    EPW35264   3.240   6.690   4.914 -0.1647  0.5051 -0.0048
 8640WAT      O35265   1.787   7.434   6.251  0.7606  0.2331  0.6386
 8640WAT     H135266   1.719   7.391   6.217 -0.1918  1.4883  0.8733
 8640WAT     H235267   1.842   7.370   6.275  0.7669 -0.7497 -1.7355
 8640WAT    EPW35268   1.785   7.418   6.250 -0.1016 -0.5207  0.5063
 8641WAT      O35269   5.355   0.325   4.758  0.1352 -0.0432 -0.2457
 8641WAT     H135270   5.275   0.353   4.737  0.2391  0.0622 -0.5097
 8641WAT     H235271   5.342   0.243   4.784 -0.0285 -0.1008 -0.5062
 8641WAT    EPW35272   5.341   0.317   4.759  0.4638  0.4141  0.3384
 8642WAT      O35273   3.541   2.905   5.311  0.2910 -0.2449  0.6138
 8642WAT     H135274   3.471   2.859   5.287  0.8894 -0.9003  0.0757
 8642WAT     H235275   3.577   2.929   5.235  0.8483 -0.2336  0.8716
 8642WAT    EPW35276   3.536   2.902   5.296  0.2147  0.5710  0.1253
 8643WAT      O35277   1.823   5.056   2.346 -0.2599  0.8438 -0.0332
 8643WAT     H135278   1.904   5.075   2.375  0.5495 -0.7881 -1.0882
 8643WAT     H235279   1.773   5.071   2.415  1.0817  0.9063  0.9784
 8643WAT    EPW35280   1.828   5.061   2.360  0.1423  0.7212  0.2639
 8644WAT      O35281   4.578   6.795   5.694 -0.0484  0.6570  0.3661
 8644WAT     H135282   4.651   6.761   5.661 -0.9650 -0.1169 -0.9809
 8644WAT     H235283   4.606   6.860   5.745  1.5516  0.4654 -0.2234
 8644WAT    EPW35284   4.593   6.800   5.697 -0.5448 -0.0132  0.4732
 8645WAT      O35285   6.920   0.864   5.704  0.4924  0.0099 -0.2175
 8645WAT     H135286   6.921   0.811   5.773 -0.3033  1.7994  1.2616
 8645WAT     H235287   6.982   0.831   5.652  0.8406 -1.6391  1.1469
 8645WAT    EPW35288   6.929   0.851   5.706 -0.1925 -0.3735  0.1240
 8646WAT      O35289   5.735   1.893   1.618 -0.1801 -0.8006 -0.4950
 8646WAT     H135290   5.661   1.932   1.641  1.2486  1.2586  0.9055
 8646WAT     H235291   5.752   1.928   1.540  0.4666  0.5348  0.2158
 8646WAT    EPW35292   5.726   1.904   1.610  0.2695  0.2689  0.5542
 8647WAT      O35293   4.669   0.883   4.239  0.6149 -0.5326  0.0513
 8647WAT     H135294   4.656   0.966   4.261  1.1922 -0.5631  0.5336
 8647WAT     H235295   4.748   0.884   4.201  0.3431 -0.7550 -0.5321
 8647WAT    EPW35296   4.679   0.895   4.236 -0.2144  0.2443  0.2388
 8648WAT      O35297   2.534   2.689   4.830 -0.0437 -0.8238  0.0276
 8648WAT     H135298   2.483   2.745   4.786 -0.3301 -1.0462  0.0757
 8648WAT     H235299   2.522   2.613   4.789 -0.4055 -1.0588  0.5597
 8648WAT    EPW35300   2.524   2.686   4.817  0.3900 -0.1467  0.1796
 8649WAT      O35301   2.604   7.221   2.146 -0.4819 -0.0580 -0.0623
 8649WAT     H135302   2.535   7.218   2.092 -1.2356  2.0570  0.6694
 8649WAT     H235303   2.663   7.265   2.100 -1.0067  1.4498  0.6297
 8649WAT    EPW35304   2.602   7.227   2.131  0.2955 -0.3797 -0.0986
 8650WAT      O35305   6.468   7.086   0.628 -0.2984 -0.1552  0.7113
 8650WAT     H135306   6.512   7.138   0.683 -0.3292 -0.0614  0.6465
 8650WAT     H235307   6.500   7.108   0.550 -1.2193  0.6770  0.5440
 8650WAT    EPW35308   6.479   7.097   0.625 -0.0963 -0.0115  0.6760
 8651WAT      O35309   5.089   2.037   3.621  0.8313 -0.2484  0.6896
 8651WAT     H135310   5.159   2.056   3.669  1.6574  1.3956 -1.0628
 8651WAT     H235311   5.103   2.077   3.546 -1.4659 -0.8633 -0.1732
 8651WAT    EPW35312   5.101   2.046   3.617 -0.3597 -0.2249 -0.0382
 8652WAT      O35313   2.031   3.282   6.686 -0.0023 -0.1619 -0.1915
 8652WAT     H135314   2.102   3.245   6.718  0.2554  0.1910 -0.3474
 8652WAT     H235315   1.970   3.268   6.747  0.3417  0.0253  0.1986
 8652WAT    EPW35316   2.032   3.275   6.699  0.3142 -0.0234 -0.3142
 8653WAT      O35317   3.622   2.406   3.596 -0.1366 -0.1312  0.0138
 8653WAT     H135318   3.626   2.422   3.510 -0.7102 -0.5847 -0.1057
 8653WAT     H235319   3.563   2.342   3.602  0.3055 -0.4898  0.6993
 8653WAT    EPW35320   3.614   2.399   3.584 -0.2271 -0.3986 -0.3312
 8654WAT      O35321   0.535   6.912   2.910  0.4819  0.2235 -0.0954
 8654WAT     H135322   0.463   6.959   2.893 -0.5214 -0.8922  0.9307
 8654WAT     H235323   0.594   6.945   2.854 -0.8065  1.1668 -0.9682
 8654WAT    EPW35324   0.533   6.924   2.899  0.5363 -0.2502  0.2489
 8655WAT      O35325   6.442   4.135   7.067  0.0799  0.2067  0.9283
 8655WAT     H135326   6.520   4.119   7.103  0.0948 -1.6327  0.1879
 8655WAT     H235327   6.437   4.077   7.002 -0.1732  2.9437 -1.7550
 8655WAT    EPW35328   6.453   4.124   7.063 -0.5815  0.1697 -0.2416
 8656WAT      O35329   5.184   7.001   3.643 -0.3647  0.4885 -0.2802
 8656WAT     H135330   5.191   7.075   3.598  1.1529  0.5502  0.0109
 8656WAT     H235331   5.216   7.021   3.722 -0.1063 -0.4195 -0.1393
 8656WAT    EPW35332   5.190   7.015   3.648  0.0555 -0.9951 -0.0182
 8657WAT      O35333   7.476   5.047   2.381 -0.2820 -0.5894 -0.0554
 8657WAT     H135334   7.426   4.975   2.388 -0.5947 -0.4487 -0.7324
 8657WAT     H235335   7.544   5.030   2.433 -1.1562 -0.6815  1.1012
 8657WAT    EPW35336   7.478   5.034   2.389 -0.2033  0.1170  0.3679
 8658WAT      O35337   0.225   6.881   2.325  0.3277  0.5716  0.0776
 8658WAT     H135338   0.286   6.927   2.366 -0.1092  2.6980 -1.5026
 8658WAT     H235339   0.248   6.886   2.241 -1.7115  1.0319 -0.5208
 8658WAT    EPW35340   0.237   6.888   2.318 -0.3309 -0.7233 -0.1728
 8659WAT      O35341   2.881   5.387   6.107 -0.0707  0.1521 -0.1841
 8659WAT     H135342   2.950   5.438   6.092 -0.3907  0.9651  0.9817
 8659WAT     H235343   2.916   5.307   6.114  0.8539  0.6081  0.8739
 8659WAT    EPW35344   2.897   5.382   6.106 -0.7943 -0.2796  0.0281
 8660WAT      O35345   3.203   1.819   5.922 -0.4687 -0.0914 -0.2535
 8660WAT     H135346   3.205   1.817   6.009 -0.9783 -0.2534 -0.2473
 8660WAT     H235347   3.134   1.870   5.904  1.1627  2.1845 -0.5455
 8660WAT    EPW35348   3.193   1.826   5.932  0.2518  0.6230  0.2445
 8661WAT      O35349   5.046   5.969   5.580  0.8361 -0.4836  0.0647
 8661WAT     H135350   5.066   6.006   5.504  0.5176 -1.3830 -0.4863
 8661WAT     H235351   4.988   6.023   5.615  2.6468  1.1150  0.7507
 8661WAT    EPW35352   5.040   5.982   5.574  0.1162  0.2774 -0.0226
 8662WAT      O35353   7.609   0.396   6.568  0.5839 -0.2633  0.4594
 8662WAT     H135354   7.644   0.371   6.493  0.3652 -0.0758  0.2916
 8662WAT     H235355   7.620   0.327   6.621  0.7934 -0.3706  0.2743
 8662WAT    EPW35356   7.616   0.382   6.565 -0.0554  0.0479 -0.1085
 8663WAT      O35357   3.317   1.822   4.482 -0.0452 -0.5440  0.0440
 8663WAT     H135358   3.269   1.895   4.477 -0.3757 -0.5269  2.4098
 8663WAT     H235359   3.379   1.835   4.422 -0.3651  1.4831  0.0612
 8663WAT    EPW35360   3.319   1.835   4.473 -0.5905  0.1237  0.3346
 8664WAT      O35361   2.352   1.678   3.704  0.0339 -0.1862  0.2149
 8664WAT     H135362   2.302   1.669   3.775  0.7025  0.0897  0.7291
 8664WAT     H235363   2.370   1.763   3.701 -0.5993 -0.0684 -0.7189
 8664WAT    EPW35364   2.347   1.689   3.714  0.9585 -0.0064  0.4345
 8665WAT      O35365   4.770   0.698   3.714 -0.0980  0.4068  0.1153
 8665WAT     H135366   4.730   0.708   3.638 -0.0348 -1.1640 -0.1506
 8665WAT     H235367   4.758   0.775   3.754 -1.6590  0.6524 -0.7509
 8665WAT    EPW35368   4.763   0.711   3.709  0.1921 -0.5618 -0.3217
 8666WAT      O35369   2.709   6.957   3.079 -0.0602 -0.6038  0.1443
 8666WAT     H135370   2.673   6.985   3.154 -0.0376 -0.8386  0.2434
 8666WAT     H235371   2.716   7.029   3.031 -0.1608 -0.4678  0.3354
 8666WAT    EPW35372   2.705   6.972   3.083  0.3459  0.2038 -0.4923
 8667WAT      O35373   5.798   1.008   2.655  1.2832 -0.6930 -0.3613
 8667WAT     H135374   5.814   0.931   2.691  0.6757  0.2585  2.1784
 8667WAT     H235375   5.874   1.051   2.663  0.9481 -0.2364  0.5190
 8667WAT    EPW35376   5.812   1.003   2.661 -0.3007 -0.1677  0.0409
 8668WAT      O35377   1.922   1.867   5.529 -0.7644  0.0515  0.3327
 8668WAT     H135378   1.907   1.784   5.553  0.2557 -1.0249 -2.3897
 8668WAT     H235379   1.858   1.884   5.473  1.0353 -0.2904 -1.9725
 8668WAT    EPW35380   1.910   1.857   5.524 -0.9665  0.5496 -0.5760
 8669WAT      O35381   2.296   6.112   4.075  0.5200 -0.1782  0.0428
 8669WAT     H135382   2.233   6.166   4.101 -0.1289 -0.2738 -1.2760
 8669WAT     H235383   2.295   6.048   4.134 -1.3077 -0.6976 -0.5046
 8669WAT    EPW35384   2.287   6.111   4.088 -0.7689 -0.3951 -0.2118
 8670WAT      O35385   7.263   4.315   5.088  0.2114  0.4078  0.2658
 8670WAT     H135386   7.212   4.340   5.155 -0.4770 -0.9576  0.2926
 8670WAT     H235387   7.328   4.373   5.089 -0.6749  1.4296  1.0522
 8670WAT    EPW35388   7.265   4.327   5.098 -0.1736  0.4730  0.3503
 8671WAT      O35389   5.661   3.742   6.367  0.4776  0.1503  0.4662
 8671WAT     H135390   5.586   3.768   6.402 -0.4214 -0.1235 -1.1226
 8671WAT     H235391   5.684   3.673   6.415 -2.3601 -2.1994 -1.2071
 8671WAT    EPW35392   5.654   3.735   6.379 -0.1932  0.2686 -0.2432
 8672WAT      O35393   7.437   2.350   3.448 -0.0311  0.7090 -0.4610
 8672WAT     H135394   7.498   2.293   3.423  0.2563  1.0685 -0.5809
 8672WAT     H235395   7.448   2.355   3.534 -0.3146  0.2893 -0.3965
 8672WAT    EPW35396   7.447   2.342   3.457 -0.4960  0.2986 -0.1964
 8673WAT      O35397   3.999   3.644   6.995 -0.1989  0.4184  0.7618
 8673WAT     H135398   4.003   3.721   7.036 -1.6295  1.9123 -1.6963
 8673WAT     H235399   3.915   3.621   7.003 -0.3997  0.5126 -0.8343
 8673WAT    EPW35400   3.987   3.652   7.002 -0.1326 -0.5753  0.1015
 8674WAT      O35401   0.330   3.209   2.645 -0.0971 -0.4374 -0.3798
 8674WAT     H135402   0.371   3.201   2.568 -0.1000  0.9311 -0.5550
 8674WAT     H235403   0.259   3.160   2.636 -0.7622  0.7222 -1.7550
 8674WAT    EPW35404   0.326   3.201   2.632 -0.1050  0.0351  0.3161
 8675WAT      O35405   5.799   1.522   4.209 -0.0802 -0.0754 -0.0019
 8675WAT     H135406   5.762   1.578   4.264 -0.7995  0.1613 -0.7119
 8675WAT     H235407   5.845   1.572   4.155  0.3063 -0.2777  0.1304
 8675WAT    EPW35408   5.800   1.537   4.209  0.7003  0.0508 -0.0150
 8676WAT      O35409   1.515   0.288   4.878  0.7877  0.0446  0.7043
 8676WAT     H135410   1.550   0.209   4.866 -1.0431 -0.8523  0.9583
 8676WAT     H235411   1.450   0.273   4.934 -0.3403  1.5325 -0.1515
 8676WAT    EPW35412   1.511   0.274   4.884 -0.7914  0.8314 -0.2678
 8677WAT      O35413   7.292   6.747   1.520  0.5696  0.1193  0.2155
 8677WAT     H135414   7.318   6.671   1.484  0.5624  0.7976 -1.2830
 8677WAT     H235415   7.243   6.722   1.587 -0.0425 -1.2333 -0.6854
 8677WAT    EPW35416   7.289   6.732   1.524 -0.2566 -0.0791  0.3146
 8678WAT      O35417   2.300   2.186   1.725  0.4248  0.5036 -0.0641
 8678WAT     H135418   2.347   2.236   1.671  0.9259 -0.0875 -0.1885
 8678WAT     H235419   2.326   2.105   1.705  0.3828  0.2601  0.8565
 8678WAT    EPW35420   2.311   2.181   1.714  0.0254 -0.0034 -0.1415
 8679WAT      O35421   1.108   4.548   3.903 -0.0811  0.3926 -0.2970
 8679WAT     H135422   1.044   4.492   3.918 -0.4309  0.3071 -1.9376
 8679WAT     H235423   1.180   4.499   3.909 -0.3080  0.0270 -0.5513
 8679WAT    EPW35424   1.109   4.532   3.906 -0.3526 -0.1876 -0.1970
 8680WAT      O35425   6.514   1.602   6.537 -0.4532 -0.1181  0.0279
 8680WAT     H135426   6.514   1.680   6.498 -0.5143  0.2618  0.7691
 8680WAT     H235427   6.477   1.618   6.615 -0.3958 -0.8705  0.2164
 8680WAT    EPW35428   6.508   1.616   6.543 -0.1332  0.9699 -0.1370
 8681WAT      O35429   1.122   3.239   3.837  0.0477 -0.4155  0.0476
 8681WAT     H135430   1.096   3.319   3.813 -1.0622 -0.6700  0.3639
 8681WAT     H235431   1.158   3.251   3.915  2.6246  0.2289 -1.1027
 8681WAT    EPW35432   1.124   3.253   3.845 -0.5085 -0.2330  0.0987
 8682WAT      O35433   3.821   7.482   5.315  0.0592 -0.3355 -0.0206
 8682WAT     H135434   3.882   7.473   5.253 -0.5375 -1.6905 -0.4496
 8682WAT     H235435   3.758   7.427   5.290 -1.2640  0.8849  0.5241
 8682WAT    EPW35436   3.821   7.472   5.302  0.3942  0.1472 -0.5083
 8683WAT      O35437   0.764   6.611   2.000 -0.0198  0.1051  0.2326
 8683WAT     H135438   0.756   6.633   2.084 -1.8422  0.9340 -0.1181
 8683WAT     H235439   0.740   6.527   1.998  1.0041 -0.2138  0.6616
 8683WAT    EPW35440   0.760   6.602   2.012 -0.5311 -0.3441 -0.2486
 8684WAT      O35441   4.431   4.578   1.862  0.1235  0.4229  0.0456
 8684WAT     H135442   4.406   4.571   1.946 -0.3326 -0.2318 -0.1335
 8684WAT     H235443   4.355   4.578   1.819  0.3132  1.5776 -0.3318
 8684WAT    EPW35444   4.416   4.577   1.868  0.0431 -0.1774  0.1577
 8685WAT      O35445   2.899   6.645   6.184 -0.6821  0.2738 -0.5325
 8685WAT     H135446   2.884   6.699   6.250 -1.1332  1.9775 -1.9395
 8685WAT     H235447   2.985   6.631   6.186 -0.8658 -0.9383  1.2502
 8685WAT    EPW35448   2.910   6.651   6.194  0.3741  0.1359 -0.3314
 8686WAT      O35449   5.056   6.611   1.698 -0.4299 -0.7104 -0.2589
 8686WAT     H135450   5.029   6.663   1.633  2.7803 -1.1756 -2.2125
 8686WAT     H235451   5.084   6.667   1.759 -1.2887 -0.2572 -0.2576
 8686WAT    EPW35452   5.056   6.627   1.697 -0.0793  0.1683 -0.1759
 8687WAT      O35453   6.032   6.808   2.307 -0.4960 -0.0606  0.2923
 8687WAT     H135454   6.077   6.873   2.344 -1.8691  1.0873  0.0426
 8687WAT     H235455   5.956   6.809   2.350 -1.0484 -0.5860 -0.6410
 8687WAT    EPW35456   6.028   6.818   2.319  0.0076  0.3031  0.4931
 8688WAT      O35457   2.140   4.788   5.646  0.1759  0.2983 -0.1310
 8688WAT     H135458   2.154   4.872   5.627  1.0298  0.0761 -0.5092
 8688WAT     H235459   2.106   4.791   5.727  2.5119  0.8704  0.8946
 8688WAT    EPW35460   2.137   4.801   5.655  0.1106 -0.7851  0.3598
 8689WAT      O35461   0.581   1.008   5.928  0.3788  0.0092 -0.0297
 8689WAT     H135462   0.622   1.066   5.877  0.8213 -1.1203 -0.9911
 8689WAT     H235463   0.614   1.024   6.008  0.2056  1.3159 -0.1990
 8689WAT    EPW35464   0.592   1.019   5.932 -0.0790  0.2165 -0.1019
 8690WAT      O35465   7.448   1.766   4.890  0.0056  0.4458  0.3119
 8690WAT     H135466   7.500   1.720   4.943 -0.3296  0.0556  0.3054
 8690WAT     H235467   7.462   1.729   4.812 -0.7393 -0.0709  0.4131
 8690WAT    EPW35468   7.458   1.754   4.886  0.6624  0.2947  0.4902
 8691WAT      O35469   3.447   2.870   5.602  0.1327  0.2371  0.0149
 8691WAT     H135470   3.523   2.871   5.561  0.7935  4.1735  0.9135
 8691WAT     H235471   3.469   2.881   5.686 -1.3875 -0.1380  0.4923
 8691WAT    EPW35472   3.461   2.872   5.609 -0.1696  0.7649  0.2613
 8692WAT      O35473   6.776   0.565   5.336 -0.0367 -0.3836 -0.1458
 8692WAT     H135474   6.774   0.636   5.385  1.4319 -0.3824 -0.0534
 8692WAT     H235475   6.709   0.576   5.281 -1.8004 -0.4361  1.8557
 8692WAT    EPW35476   6.766   0.577   5.335  0.1225  0.7341 -0.5126
 8693WAT      O35477   7.193   4.214   6.375  0.0546 -0.6222 -0.3673
 8693WAT     H135478   7.208   4.252   6.452 -1.5228 -1.3472  0.3531
 8693WAT     H235479   7.228   4.270   6.318  0.0322  0.6554  0.7943
 8693WAT    EPW35480   7.200   4.228   6.378  0.4871  0.1204 -0.1339
 8694WAT      O35481   1.618   0.674   0.967 -0.2534  0.4473 -0.1781
 8694WAT     H135482   1.559   0.673   0.903 -0.6719  0.6806  0.1943
 8694WAT     H235483   1.606   0.598   1.007 -0.2043  0.4312 -0.1950
 8694WAT    EPW35484   1.607   0.663   0.963  0.5506  0.3505  0.1760
 8695WAT      O35485   3.846   2.380   5.295 -0.6548  0.2648 -0.1796
 8695WAT     H135486   3.917   2.388   5.346  0.9323 -1.0645 -2.0200
 8695WAT     H235487   3.825   2.462   5.276 -1.6574  0.8673  2.9256
 8695WAT    EPW35488   3.853   2.393   5.300  0.1691  0.0370 -0.4202
 8696WAT      O35489   1.740   0.059   2.985  0.3404 -0.0331  0.2291
 8696WAT     H135490   1.700   0.126   2.946  1.0497  0.3608  0.1609
 8696WAT     H235491   1.821   0.063   2.954  1.0430  0.5174  1.9968
 8696WAT    EPW35492   1.746   0.070   2.975  0.2373  0.1844 -1.1090
 8697WAT      O35493   1.688   6.994   7.337  0.4206  0.0227  0.0730
 8697WAT     H135494   1.607   6.974   7.360  0.1254  0.0583 -0.8919
 8697WAT     H235495   1.685   7.080   7.323  0.6359  0.0343  0.0902
 8697WAT    EPW35496   1.676   7.004   7.338 -0.6528 -0.5423  0.4647
 8698WAT      O35497   5.339   5.522   6.676 -0.5983 -0.0877  0.6054
 8698WAT     H135498   5.346   5.516   6.589  2.8934 -0.2085  0.7775
 8698WAT     H235499   5.256   5.547   6.688 -0.6109  2.2264 -2.8757
 8698WAT    EPW35500   5.328   5.525   6.665 -0.0164  0.0643  0.0176
 8699WAT      O35501   4.855   0.128   3.399  0.3264  0.8064  0.2311
 8699WAT     H135502   4.846   0.209   3.368  0.3351  0.6064 -0.3014
 8699WAT     H235503   4.780   0.113   3.441 -1.4367 -0.3448 -2.9891
 8699WAT    EPW35504   4.843   0.138   3.400  0.8861  0.3756  0.6736
 8700WAT      O35505   2.391   3.254   6.121  0.4224  0.5651  0.7525
 8700WAT     H135506   2.368   3.228   6.040  0.9702  0.6621  0.5654
 8700WAT     H235507   2.324   3.304   6.146 -0.1512 -0.1537  0.6932
 8700WAT    EPW35508   2.378   3.257   6.113  0.7521 -0.2125 -0.4077
 8701WAT      O35509   2.915   0.661   5.464 -0.1263  0.7252  0.0394
 8701WAT     H135510   2.910   0.719   5.399  0.6292  0.5077 -0.2235
 8701WAT     H235511   2.890   0.586   5.426  0.4176  0.5779 -0.0330
 8701WAT    EPW35512   2.910   0.658   5.448  0.6469 -0.2457  0.5188
 8702WAT      O35513   0.396   2.340   1.396  0.2538  0.2054 -0.4798
 8702WAT     H135514   0.376   2.391   1.328  0.2187 -0.8711 -1.3013
 8702WAT     H235515   0.378   2.260   1.367  0.2240 -0.2679  0.8202
 8702WAT    EPW35516   0.391   2.336   1.381 -0.4833 -0.1685  0.8637
 8703WAT      O35517   3.486   2.065   3.562 -0.1725  0.3827  0.0404
 8703WAT     H135518   3.544   2.077   3.499  0.5306 -0.8575  0.4153
 8703WAT     H235519   3.442   2.141   3.565 -0.5728  0.2885 -2.2465
 8703WAT    EPW35520   3.488   2.078   3.553  0.5172 -0.2858 -0.0420
 8704WAT      O35521   2.209   3.235   7.439 -0.0569  0.1204  0.1676
 8704WAT     H135522   2.159   3.244   7.510 -2.4802  0.3824 -1.4490
 8704WAT     H235523   2.189   3.156   7.410 -0.7850  0.8255 -1.3646
 8704WAT    EPW35524   2.198   3.225   7.445  0.6144 -0.1290 -0.2352
 8705WAT      O35525   6.067   1.267   4.728 -0.0431 -0.0401  0.2089
 8705WAT     H135526   6.052   1.185   4.702  0.4112 -0.0374 -0.0603
 8705WAT     H235527   6.153   1.276   4.719 -0.2032  0.7627 -0.6496
 8705WAT    EPW35528   6.077   1.256   4.723 -0.0295  0.1807  0.2814
 8706WAT      O35529   3.430   3.988   2.004  0.2607 -0.6914 -0.3544
 8706WAT     H135530   3.382   3.987   1.931 -1.0902  0.9376  0.4356
 8706WAT     H235531   3.373   3.968   2.066  1.0611 -0.6160  0.4178
 8706WAT    EPW35532   3.414   3.985   2.002  0.3402  0.1874 -0.3208
 8707WAT      O35533   5.533   1.785   4.845 -0.4086  0.0112 -0.0850
 8707WAT     H135534   5.548   1.851   4.900 -1.1011  1.2452 -1.3172
 8707WAT     H235535   5.506   1.825   4.772  1.3059 -1.5057 -1.6407
 8707WAT    EPW35536   5.531   1.801   4.842  0.5405  0.1442  0.1533
 8708WAT      O35537   3.224   2.170   2.354 -0.5229 -0.1159  0.1239
 8708WAT     H135538   3.308   2.146   2.346 -0.1063  1.6948 -1.6312
 8708WAT     H235539   3.204   2.146   2.436  1.5418 -1.0480  0.4267
 8708WAT    EPW35540   3.234   2.163   2.365 -0.0368  0.3906  0.1914
 8709WAT      O35541   0.505   5.005   2.910  0.2423 -0.2759 -0.2381
 8709WAT     H135542   0.448   4.979   2.971  0.5801 -1.4743 -0.4052
 8709WAT     H235543   0.506   5.092   2.918  0.3928 -0.4209  1.5568
 8709WAT    EPW35544   0.497   5.014   2.920  0.2011 -0.6058  0.3555
 8710WAT      O35545   2.552   4.657   6.237 -0.1444  0.0861  0.3512
 8710WAT     H135546   2.631   4.672   6.204  0.2467 -1.6840  0.3726
 8710WAT     H235547   2.512   4.735   6.232  0.9039  0.5613 -1.4900
 8710WAT    EPW35548   2.558   4.671   6.232 -0.2407  0.7312  0.2179
 8711WAT      O35549   4.161   5.046   0.299 -0.4105 -0.6113 -0.0168
 8711WAT     H135550   4.130   5.021   0.377  1.1951  0.5990  1.0962
 8711WAT     H235551   4.147   5.133   0.299  2.8788  0.0380  0.6331
 8711WAT    EPW35552   4.154   5.055   0.311 -0.0670  0.3496 -0.2473
 8712WAT      O35553   3.495   1.377   3.309 -0.2082  0.1933 -0.4557
 8712WAT     H135554   3.478   1.307   3.357 -0.3877 -1.1902 -2.4136
 8712WAT     H235555   3.436   1.373   3.245 -1.2833  3.0533  0.1843
 8712WAT    EPW35556   3.484   1.366   3.307  0.2070 -0.1595  0.3026
 8713WAT      O35557   7.049   6.309   0.523  0.0980 -0.5304  0.2453
 8713WAT     H135558   7.024   6.389   0.546  0.1629 -0.8803  1.5847
 8713WAT     H235559   7.006   6.295   0.448 -0.4337  0.4983  0.3450
 8713WAT    EPW35560   7.039   6.319   0.515 -0.2381  0.7644  0.0538
 8714WAT      O35561   2.080   0.549   3.394 -0.1339 -0.2099 -1.1326
 8714WAT     H135562   2.113   0.558   3.314  2.4486 -1.1052 -0.2509
 8714WAT     H235563   2.066   0.463   3.401 -0.6456 -0.0980 -0.7196
 8714WAT    EPW35564   2.083   0.538   3.383  0.0581 -0.1894  0.1366
 8715WAT      O35565   7.288   5.732   1.442  0.5425  0.0479 -0.2700
 8715WAT     H135566   7.278   5.775   1.517  0.7124 -1.7257  0.8342
 8715WAT     H235567   7.207   5.710   1.420  0.5074  0.4414 -0.5500
 8715WAT    EPW35568   7.274   5.735   1.450 -0.2256 -0.3571 -0.2588
 8716WAT      O35569   5.644   1.042   2.403  0.8149  0.5042 -0.2349
 8716WAT     H135570   5.664   1.032   2.487 -0.1899  0.9318  0.0776
 8716WAT     H235571   5.702   1.100   2.374  1.4506  0.0193  0.0381
 8716WAT    EPW35572   5.655   1.049   2.411  0.4778 -0.1666 -0.0959
 8717WAT      O35573   3.411   1.350   5.711 -0.2241 -0.3662  0.3895
 8717WAT     H135574   3.368   1.318   5.642 -1.8169  1.3400  0.5080
 8717WAT     H235575   3.360   1.414   5.739  1.2966  0.2123  2.0452
 8717WAT    EPW35576   3.397   1.355   5.705  0.2729  0.5604  0.1557
 8718WAT      O35577   2.762   7.028   6.192 -0.8465 -0.1692  0.1857
 8718WAT     H135578   2.791   6.973   6.253  0.1561  2.0906  1.8795
 8718WAT     H235579   2.834   7.072   6.168 -1.6149  0.4779 -1.0634
 8718WAT    EPW35580   2.777   7.027   6.197  0.6419  0.3903  0.0581
 8719WAT      O35581   4.609   6.672   2.812 -0.4234 -0.5116 -0.0138
 8719WAT     H135582   4.532   6.698   2.782 -0.4135  1.0485  1.1842
 8719WAT     H235583   4.646   6.746   2.841  1.2044 -1.3325  0.1180
 8719WAT    EPW35584   4.603   6.687   2.812  0.1935 -0.0910  0.0326
 8720WAT      O35585   1.894   6.737   7.039 -0.5762  0.7441 -0.0366
 8720WAT     H135586   1.971   6.711   7.008 -0.6436 -0.9405  1.0989
 8720WAT     H235587   1.836   6.709   6.980 -0.5715 -1.0190  0.7479
 8720WAT    EPW35588   1.897   6.729   7.026 -0.2912 -0.4692  0.1040
 8721WAT      O35589   5.391   1.903   4.630 -0.5911 -0.2929 -0.3516
 8721WAT     H135590   5.444   1.953   4.581  0.3179 -0.8317  0.0537
 8721WAT     H235591   5.358   1.959   4.689 -0.8077  0.1316 -0.8648
 8721WAT    EPW35592   5.394   1.919   4.631 -0.4544 -0.1046  0.8807
 8722WAT      O35593   1.300   1.769   5.594 -0.4350 -0.3700 -0.2810
 8722WAT     H135594   1.255   1.792   5.523  0.3172 -3.3634 -1.8933
 8722WAT     H235595   1.379   1.802   5.580 -0.6899  0.3588 -0.0470
 8722WAT    EPW35596   1.305   1.777   5.581 -0.0208 -0.5341  0.2470
 8723WAT      O35597   5.371   7.320   2.384  0.3375  0.0194 -0.2127
 8723WAT     H135598   5.366   7.330   2.471  0.0914 -1.0108 -0.0906
 8723WAT     H235599   5.428   7.255   2.375  1.2435  0.8824 -0.8941
 8723WAT    EPW35600   5.379   7.312   2.396 -0.1654  0.0460 -0.2349
 8724WAT      O35601   3.947   6.680   5.363  0.3523  0.6884 -0.1287
 8724WAT     H135602   3.886   6.626   5.332  1.2328 -0.7696  0.5216
 8724WAT     H235603   3.966   6.731   5.295  2.8188 -2.8707 -2.4905
 8724WAT    EPW35604   3.941   6.679   5.349  0.3796 -0.1284  0.5334
 8725WAT      O35605   1.120   2.132   5.769  0.7423 -0.2265 -0.2145
 8725WAT     H135606   1.130   2.202   5.820  2.0585 -0.9099  0.5146
 8725WAT     H235607   1.157   2.155   5.694  3.4123 -0.8947  0.7822
 8725WAT    EPW35608   1.127   2.146   5.766 -0.0855 -0.7161 -0.0248
 8726WAT      O35609   2.182   4.963   2.109 -0.0335  0.5496 -0.3184
 8726WAT     H135610   2.096   4.948   2.114 -0.1341  0.4296 -1.9110
 8726WAT     H235611   2.188   5.050   2.116 -0.2386  0.5200  0.2539
 8726WAT    EPW35612   2.170   4.973   2.111 -0.1979 -0.7946 -0.0091
 8727WAT      O35613   3.219   1.519   0.526  0.6096  0.0991  0.4606
 8727WAT     H135614   3.242   1.435   0.536  0.9422  0.2719  1.2852
 8727WAT     H235615   3.292   1.563   0.546  1.1594  0.5785 -2.2268
 8727WAT    EPW35616   3.233   1.513   0.531  0.1885  0.4959  0.5034
 8728WAT      O35617   3.479   1.714   6.817  1.1535  0.5346  0.1448
 8728WAT     H135618   3.565   1.728   6.815  1.2597  0.4075  1.9052
 8728WAT     H235619   3.445   1.793   6.802  1.6078  0.8077  0.5208
 8728WAT    EPW35620   3.487   1.728   6.815 -0.2042  0.3399  0.2627
 8729WAT      O35621   6.415   1.146   1.900  0.1574  0.1298 -0.1018
 8729WAT     H135622   6.452   1.184   1.831 -0.5275 -0.9137 -1.0876
 8729WAT     H235623   6.452   1.185   1.968  0.7252  1.3150 -1.0638
 8729WAT    EPW35624   6.426   1.157   1.900  0.4817 -0.6437 -0.0320
 8730WAT      O35625   0.394   3.766   1.663  0.6671  0.1667  0.6346
 8730WAT     H135626   0.409   3.684   1.689  0.0297  0.1234  0.8960
 8730WAT     H235627   0.447   3.776   1.595  2.6232  0.3908  2.1167
 8730WAT    EPW35628   0.404   3.755   1.656  0.2317  0.2011 -0.1736
 8731WAT      O35629   7.037   5.881   4.847 -0.5473 -0.4305 -0.0302
 8731WAT     H135630   6.993   5.902   4.919 -0.8487 -1.0554 -0.0262
 8731WAT     H235631   6.984   5.824   4.806 -0.1075 -0.5587 -0.4350
 8731WAT    EPW35632   7.022   5.875   4.851 -0.3649  0.2083  0.1694
 8732WAT      O35633   7.620   4.117   0.979  1.1652 -0.3943 -0.1622
 8732WAT     H135634   7.620   4.136   1.065 -2.1075 -0.0886 -0.1052
 8732WAT     H235635   7.627   4.031   0.977  1.6375 -0.3738  0.4038
 8732WAT    EPW35636   7.621   4.107   0.992  0.2812  0.0074  0.0991
 8733WAT      O35637   1.166   2.166   5.484  0.5515 -0.1668 -0.2453
 8733WAT     H135638   1.097   2.220   5.476 -1.3789 -2.0651  1.9669
 8733WAT     H235639   1.145   2.099   5.433  0.8447 -0.6536  0.2614
 8733WAT    EPW35640   1.153   2.164   5.476 -0.8581  0.1106 -0.2267
 8734WAT      O35641   5.267   5.641   7.205 -0.1730  0.0399 -0.1518
 8734WAT     H135642   5.277   5.639   7.291  1.6421 -0.8850 -0.3224
 8734WAT     H235643   5.322   5.704   7.179  0.0467 -0.3602 -0.6892
 8734WAT    EPW35644   5.277   5.650   7.214  0.2193  0.3976 -0.3671
 8735WAT      O35645   0.174   0.844   0.750 -0.0169  0.4797  0.2102
 8735WAT     H135646   0.251   0.864   0.786  0.1001  1.4284 -0.5167
 8735WAT     H235647   0.116   0.871   0.809  0.1517  2.6248 -0.5053
 8735WAT    EPW35648   0.177   0.851   0.764  0.1334  0.2788 -0.2347
 8736WAT      O35649   2.663   0.869   7.505 -0.5415  0.2524  0.0070
 8736WAT     H135650   2.718   0.931   7.478 -0.8063  0.0292 -1.1017
 8736WAT     H235651   2.715   0.801   7.522 -0.5052 -0.3960 -2.2878
 8736WAT    EPW35652   2.679   0.868   7.503  0.0197 -0.2611 -1.1210
 8737WAT      O35653   1.811   5.018   4.589  0.2811  0.6687 -0.2630
 8737WAT     H135654   1.779   4.937   4.589  0.8173  0.4547  0.1894
 8737WAT     H235655   1.823   5.036   4.505 -1.1172  0.7950 -0.4579
 8737WAT    EPW35656   1.808   5.009   4.577  0.3380 -0.1612  0.3196
 8738WAT      O35657   2.498   0.488   5.961 -0.5332  0.4526 -0.0580
 8738WAT     H135658   2.514   0.402   5.962 -0.4075  0.4392 -1.5966
 8738WAT     H235659   2.571   0.523   5.991 -0.9427  0.0068  1.5826
 8738WAT    EPW35660   2.511   0.480   5.965  0.6121 -0.4850 -0.0804
 8739WAT      O35661   1.838   4.874   6.683  0.1912 -0.0913  0.6692
 8739WAT     H135662   1.822   4.959   6.676 -0.6467 -0.2016  1.0571
 8739WAT     H235663   1.794   4.852   6.756 -0.7335 -1.1125 -0.1704
 8739WAT    EPW35664   1.829   4.883   6.693  0.1668  0.3067  0.2701
 8740WAT      O35665   4.070   1.076   7.488 -0.4020 -0.4876  0.6993
 8740WAT     H135666   4.002   1.025   7.508 -0.0321 -1.1566  0.2839
 8740WAT     H235667   4.057   1.096   7.405  1.6188 -3.4596 -0.5098
 8740WAT    EPW35668   4.058   1.071   7.479 -0.2770 -0.0465 -0.3399
 8741WAT      O35669   1.408   7.121   6.182  0.0143 -0.9841  0.5777
 8741WAT     H135670   1.357   7.055   6.208 -1.1824 -1.0191 -1.6107
 8741WAT     H235671   1.387   7.132   6.098  2.7312 -0.1335 -0.1127
 8741WAT    EPW35672   1.398   7.113   6.174 -1.0077 -0.0750  0.5353
 8742WAT      O35673   1.158   0.822   6.493 -0.0121 -0.4848  0.0850
 8742WAT     H135674   1.101   0.766   6.529  2.0561 -2.3542  0.6924
 8742WAT     H235675   1.174   0.787   6.415 -1.6967  1.5638 -1.2871
 8742WAT    EPW35676   1.152   0.808   6.487 -0.4177 -0.3840  0.1563
 8743WAT      O35677   4.290   7.537   7.296 -0.2767  0.0832  0.1907
 8743WAT     H135678   4.356   7.512   7.245 -0.3696 -0.8216  0.5009
 8743WAT     H235679   4.242   7.587   7.243 -0.3116 -0.7568 -0.5960
 8743WAT    EPW35680   4.292   7.541   7.281  0.6094 -0.4591  0.0556
 8744WAT      O35681   0.753   1.696   5.378  0.0217 -0.0363  0.1037
 8744WAT     H135682   0.802   1.646   5.430  0.6779  0.1270 -0.3544
 8744WAT     H235683   0.811   1.746   5.336 -0.6010  0.8653  0.2892
 8744WAT    EPW35684   0.769   1.696   5.380  0.5257  0.3714  0.2699
 8745WAT      O35685   4.373   2.773   0.841 -0.0626  0.1113  0.6764
 8745WAT     H135686   4.295   2.734   0.837  0.8382 -1.6794 -2.5813
 8745WAT     H235687   4.355   2.857   0.825 -1.3024 -0.3664 -0.6055
 8745WAT    EPW35688   4.359   2.780   0.838 -0.5834 -0.2183 -0.3467
 8746WAT      O35689   1.451   0.096   1.340 -0.3424  0.0247  0.3763
 8746WAT     H135690   1.403   0.051   1.283  1.2632 -2.8879  1.1579
 8746WAT     H235691   1.391   0.127   1.396 -1.5759 -0.5796 -0.5519
 8746WAT    EPW35692   1.435   0.094   1.340 -0.0869 -0.6406 -0.3078
 8747WAT      O35693   5.652   3.857   5.879  0.4323 -0.2171 -0.2020
 8747WAT     H135694   5.576   3.867   5.920 -0.2700 -0.3735 -1.4256
 8747WAT     H235695   5.651   3.773   5.854  1.4421 -0.4869  0.5863
 8747WAT    EPW35696   5.641   3.846   5.881 -0.4175  0.6579 -0.1851
 8748WAT      O35697   3.838   4.450   1.574 -0.2671  0.0292 -0.1819
 8748WAT     H135698   3.879   4.463   1.650 -0.5852 -0.2907  0.0449
 8748WAT     H235699   3.769   4.401   1.596 -1.0258  0.9165 -0.4805
 8748WAT    EPW35700   3.834   4.445   1.589  0.5872  0.1717  0.6152
 8749WAT      O35701   4.070   4.356   5.481 -0.0290 -0.4582  0.3543
 8749WAT     H135702   4.059   4.403   5.408 -1.3825  0.7430  1.2606
 8749WAT     H235703   4.068   4.274   5.453 -0.6068 -0.0311 -0.9697
 8749WAT    EPW35704   4.068   4.351   5.466 -0.6491  0.3255  0.1991
 8750WAT      O35705   5.312   3.203   6.142  0.6744  0.6858  0.1034
 8750WAT     H135706   5.252   3.169   6.089  1.2640  0.3896 -0.3868
 8750WAT     H235707   5.332   3.279   6.104  0.9256  0.5810  0.0239
 8750WAT    EPW35708   5.306   3.209   6.129  0.1921 -0.0266  0.4221
 8751WAT      O35709   3.458   0.605   1.777  0.1176 -0.3817  0.4447
 8751WAT     H135710   3.483   0.682   1.810  0.6004 -0.6299  0.6481
 8751WAT     H235711   3.407   0.571   1.839 -0.7375  0.1089  0.0423
 8751WAT    EPW35712   3.454   0.612   1.791 -0.2004  0.4047 -0.4472
 8752WAT      O35713   5.767   5.545   3.317  0.2652 -0.0417 -0.0250
 8752WAT     H135714   5.688   5.541   3.354 -0.8541  1.3677 -1.9994
 8752WAT     H235715   5.822   5.528   3.382 -1.6718 -1.7258  1.2965
 8752WAT    EPW35716   5.763   5.542   3.332 -0.3125  1.3538  0.2979
 8753WAT      O35717   1.255   4.850   5.632  0.3288 -0.2000  0.2292
 8753WAT     H135718   1.319   4.858   5.690 -0.4567 -0.5840  1.1622
 8753WAT     H235719   1.297   4.852   5.555  1.6898 -2.3906  0.8346
 8753WAT    EPW35720   1.271   4.852   5.629 -0.4589  0.3662 -0.4153
 8754WAT      O35721   2.118   1.390   1.902 -0.1227 -0.4716  0.2208
 8754WAT     H135722   2.112   1.477   1.904 -0.9352 -0.5072 -0.1468
 8754WAT     H235723   2.199   1.376   1.871  0.0137  0.1499  0.2718
 8754WAT    EPW35724   2.129   1.401   1.897  0.1475 -0.1118  0.1741
 8755WAT      O35725   6.933   5.700   0.237 -0.5434  0.2786  0.1406
 8755WAT     H135726   6.905   5.670   0.314  1.1173  0.6573  0.9467
 8755WAT     H235727   6.875   5.761   0.215 -1.1721 -0.0110  0.9751
 8755WAT    EPW35728   6.921   5.705   0.245  0.3227  0.5542  0.1100
 8756WAT      O35729   5.119   4.560   1.821 -0.5862  0.7327 -0.2004
 8756WAT     H135730   5.156   4.623   1.773 -0.5122  1.1297  0.3702
 8756WAT     H235731   5.040   4.592   1.840  0.4891  2.0072  2.5910
 8756WAT    EPW35732   5.113   4.574   1.817  0.6221  0.1773  0.3679
 8757WAT      O35733   0.973   2.207   3.123  0.1304  0.2944 -0.1313
 8757WAT     H135734   0.971   2.293   3.112 -1.1069  0.2203 -0.6644
 8757WAT     H235735   0.921   2.194   3.193  0.2591 -0.0158 -0.0897
 8757WAT    EPW35736   0.965   2.218   3.132  0.2252  0.0261  0.3416
 8758WAT      O35737   3.677   6.493   4.586 -0.0923 -0.2106 -0.3070
 8758WAT     H135738   3.737   6.468   4.644 -1.6292  0.0947  1.5083
 8758WAT     H235739   3.622   6.425   4.583 -1.8146  1.0341  1.1820
 8758WAT    EPW35740   3.678   6.479   4.594 -0.0769 -0.1719 -0.9069
 8759WAT      O35741   1.071   6.661   6.228 -0.2114 -1.2023  0.5249
 8759WAT     H135742   1.020   6.717   6.271 -0.8018 -0.6227 -0.8782
 8759WAT     H235743   1.150   6.698   6.232  0.0895 -1.9106  2.3677
 8759WAT    EPW35744   1.075   6.674   6.235 -0.4100  0.3245  0.2369
 8760WAT      O35745   0.997   6.828   1.444  0.7011  0.2881  0.3149
 8760WAT     H135746   0.942   6.822   1.377  1.1570 -0.8532  0.0045
 8760WAT     H235747   0.961   6.888   1.496 -2.0087 -1.9294  1.2202
 8760WAT    EPW35748   0.984   6.836   1.442 -0.1073  0.6924 -0.5098
 8761WAT      O35749   1.380   6.739   1.534  0.0935 -0.1995  0.2108
 8761WAT     H135750   1.385   6.798   1.469  0.6611 -1.5112 -1.0103
 8761WAT     H235751   1.315   6.686   1.508 -0.7715  0.1742  1.5526
 8761WAT    EPW35752   1.371   6.739   1.520 -0.0629 -0.2825 -0.4876
 8762WAT      O35753   3.767   1.266   2.045 -0.5107  0.5915  0.5570
 8762WAT     H135754   3.797   1.223   2.115  0.2668  0.6509  0.2657
 8762WAT     H235755   3.788   1.214   1.978  1.1320  1.7549  0.1222
 8762WAT    EPW35756   3.774   1.252   2.045 -0.2355  0.4285  0.0259
 8763WAT      O35757   5.508   1.714   0.106  0.1998  0.0081 -0.1038
 8763WAT     H135758   5.509   1.651   0.046 -2.2886  0.5477 -0.8483
 8763WAT     H235759   5.504   1.671   0.181 -0.7946 -0.7663 -0.5657
 8763WAT    EPW35760   5.507   1.698   0.108  0.2643  0.4752 -0.2303
 8764WAT      O35761   1.642   5.380   4.310  0.0630  0.5521 -0.1469
 8764WAT     H135762   1.589   5.400   4.243 -0.2006  0.7231  0.1098
 8764WAT     H235763   1.708   5.436   4.301  0.1143  0.4591 -0.3630
 8764WAT    EPW35764   1.644   5.391   4.298  0.4663  0.7417  0.0014
 8765WAT      O35765   5.495   2.622   5.082  0.0723 -0.3251  0.1669
 8765WAT     H135766   5.531   2.576   5.147 -0.3051 -0.2883  0.4099
 8765WAT     H235767   5.524   2.703   5.095  1.3307 -0.6142 -0.6964
 8765WAT    EPW35768   5.505   2.627   5.094  0.5458  0.6579 -0.0495
 8766WAT      O35769   5.023   4.145   7.308 -0.0049 -0.3272  0.5061
 8766WAT     H135770   5.107   4.154   7.286  0.0058 -0.5036  0.4797
 8766WAT     H235771   5.025   4.137   7.395  0.1280 -1.8625  0.3813
 8766WAT    EPW35772   5.036   4.145   7.318 -0.0985 -0.4148  0.3916
 8767WAT      O35773   1.153   2.790   6.747 -0.1215  0.0910  0.3345
 8767WAT     H135774   1.128   2.733   6.809 -0.0013 -1.1248 -0.6908
 8767WAT     H235775   1.085   2.791   6.692  0.5228 -0.3265 -0.4987
 8767WAT    EPW35776   1.139   2.781   6.748  0.0254 -0.0578 -0.3332
 8768WAT      O35777   0.372   5.082   5.417 -0.1012  0.0263  0.2706
 8768WAT     H135778   0.286   5.087   5.402  0.2017 -0.1951 -1.8758
 8768WAT     H235779   0.400   5.028   5.355  1.8966  1.7984 -0.4615
 8768WAT    EPW35780   0.363   5.075   5.406 -0.2051  0.4819 -0.0802
 8769WAT      O35781   0.592   3.347   6.755 -0.2103  0.5305  0.7845
 8769WAT     H135782   0.516   3.309   6.773 -0.5585  0.7953 -0.0724
 8769WAT     H235783   0.595   3.415   6.809  0.6906 -0.9895  2.7676
 8769WAT    EPW35784   0.582   3.351   6.765 -0.1771  0.4367  0.2377
 8770WAT      O35785   0.702   5.267   0.460 -0.2799  0.3763  0.3121
 8770WAT     H135786   0.636   5.211   0.452  0.0171  0.1082 -0.3062
 8770WAT     H235787   0.663   5.345   0.463 -0.5663  0.4314 -2.4217
 8770WAT    EPW35788   0.687   5.271   0.460  0.0307 -0.4733  0.2437
 8771WAT      O35789   0.675   0.182   4.310 -0.3288 -0.3358 -0.4466
 8771WAT     H135790   0.640   0.218   4.382  1.1610 -1.6058  1.0234
 8771WAT     H235791   0.622   0.115   4.292 -0.3378 -0.4307 -0.0866
 8771WAT    EPW35792   0.662   0.177   4.318 -0.0453  0.9522 -0.2829
 8772WAT      O35793   4.220   2.698   1.404  0.2172 -0.0271  0.6006
 8772WAT     H135794   4.232   2.756   1.468 -0.1309 -0.7077  1.3090
 8772WAT     H235795   4.203   2.747   1.334 -0.9758  0.7139  1.3612
 8772WAT    EPW35796   4.219   2.714   1.403 -0.1968 -0.3171  0.6551
 8773WAT      O35797   3.477   6.626   5.022 -0.4687 -0.5129  0.5173
 8773WAT     H135798   3.489   6.560   5.078  0.3227 -1.2240 -0.4464
 8773WAT     H235799   3.493   6.697   5.070  0.4219 -1.1090  1.1456
 8773WAT    EPW35800   3.481   6.627   5.038  0.4296  0.1638 -0.3510
 8774WAT      O35801   3.430   3.459   1.916 -0.0823 -0.4583  0.4091
 8774WAT     H135802   3.399   3.513   1.855 -0.3584  0.2005  1.1229
 8774WAT     H235803   3.364   3.402   1.927 -1.4249  1.3625  2.4402
 8774WAT    EPW35804   3.415   3.458   1.909  0.1282  0.4422  0.6727
 8775WAT      O35805   6.929   3.411   1.923 -0.1078  0.3566  0.2600
 8775WAT     H135806   6.901   3.364   1.855  0.1804 -0.9518  1.0058
 8775WAT     H235807   6.857   3.449   1.954 -0.6668 -1.0024  0.6761
 8775WAT    EPW35808   6.914   3.410   1.917 -0.6831  0.3217 -0.2517
 8776WAT      O35809   3.386   3.595   1.677  0.0900  0.3141  0.4708
 8776WAT     H135810   3.456   3.646   1.662  0.8810 -0.9447 -0.3228
 8776WAT     H235811   3.394   3.531   1.618  0.0056 -1.5796  2.3767
 8776WAT    EPW35812   3.398   3.593   1.666 -0.1151  0.1905 -0.1073
 8777WAT      O35813   5.614   0.745   7.268  0.1632  0.5650 -0.2181
 8777WAT     H135814   5.658   0.684   7.225  1.3481  1.5193 -0.4311
 8777WAT     H235815   5.637   0.819   7.228  0.5852  1.3921  1.4617
 8777WAT    EPW35816   5.624   0.747   7.256 -0.3176  0.1261  0.2169
 8778WAT      O35817   2.653   4.951   2.722 -0.5008  0.8938 -0.2059
 8778WAT     H135818   2.724   4.902   2.737 -1.2916  0.0625  1.0172
 8778WAT     H235819   2.669   4.987   2.644  1.0114  0.2925 -0.2110
 8778WAT    EPW35820   2.666   4.949   2.713 -0.3937 -0.3064 -0.1208
 8779WAT      O35821   3.804   6.090   1.949 -0.3567  0.2483  0.6075
 8779WAT     H135822   3.818   6.010   1.980  3.0816  0.5874  0.2728
 8779WAT     H235823   3.754   6.127   2.010  0.4383 -1.2403  2.2555
 8779WAT    EPW35824   3.798   6.083   1.963 -0.4513  0.4858  0.3550
 8780WAT      O35825   1.540   6.098   5.237 -0.0045  0.0229 -0.0115
 8780WAT     H135826   1.472   6.046   5.221 -0.2532  0.7691 -1.5809
 8780WAT     H235827   1.609   6.047   5.220 -0.1982 -0.2946  0.1360
 8780WAT    EPW35828   1.541   6.083   5.232 -0.3314  0.0682 -0.6608
 8781WAT      O35829   4.283   2.702   6.918 -0.1955  0.1483  0.2936
 8781WAT     H135830   4.245   2.770   6.879 -0.8759 -0.3729  0.0125
 8781WAT     H235831   4.247   2.633   6.877  1.6471 -0.3806 -0.5357
 8781WAT    EPW35832   4.272   2.702   6.906  0.2209  0.4826 -0.4596
 8782WAT      O35833   6.485   7.548   1.871 -0.0494 -0.7583  0.5026
 8782WAT     H135834   6.559   7.587   1.845 -0.9922  2.3246  1.9289
 8782WAT     H235835   6.506   7.512   1.947  0.0420  0.0403  0.8656
 8782WAT    EPW35836   6.499   7.549   1.878 -0.7952 -0.0387  0.0963
 8783WAT      O35837   0.319   0.179   4.925  0.3150  0.2007  0.1355
 8783WAT     H135838   0.281   0.229   4.864  1.4164  0.8163 -0.0683
 8783WAT     H235839   0.271   0.105   4.923 -0.3790  0.6495 -0.6487
 8783WAT    EPW35840   0.306   0.175   4.916 -0.6511 -0.1126  0.2774
 8784WAT      O35841   4.909   1.587   6.502  0.7198  0.2872 -0.3746
 8784WAT     H135842   4.854   1.621   6.560  2.9709 -0.7026  2.5946
 8784WAT     H235843   4.881   1.620   6.426 -2.0444  2.2114  1.2730
 8784WAT    EPW35844   4.897   1.597   6.499 -0.1766  0.3915 -0.0449
 8785WAT      O35845   2.885   2.049   0.382  0.5557  0.7856  0.1816
 8785WAT     H135846   2.831   2.091   0.328  0.5232  1.3935  0.6668
 8785WAT     H235847   2.935   2.113   0.415  1.8759  0.1776 -0.5822
 8785WAT    EPW35848   2.884   2.065   0.379  0.3549 -0.6502  0.3726
 8786WAT      O35849   4.213   6.294   6.033 -0.0164  0.0307  0.6125
 8786WAT     H135850   4.221   6.208   6.036 -1.0677 -0.1719 -1.1515
 8786WAT     H235851   4.291   6.323   6.057  1.0178 -1.4627 -0.7743
 8786WAT    EPW35852   4.225   6.286   6.037  0.3181  0.6783 -0.0500
 8787WAT      O35853   6.074   5.764   4.725  0.5340  0.0412 -0.7837
 8787WAT     H135854   6.041   5.739   4.802 -1.0688  0.5302 -1.2675
 8787WAT     H235855   6.049   5.701   4.671 -1.1115  1.2231 -1.4731
 8787WAT    EPW35856   6.065   5.751   4.729 -0.3384 -0.5380 -0.0444
 8788WAT      O35857   2.946   3.479   0.618 -0.1021  0.0377  0.4388
 8788WAT     H135858   2.922   3.477   0.534 -0.3834  1.1914  0.4754
 8788WAT     H235859   3.009   3.419   0.623 -2.1178 -2.2431  0.0769
 8788WAT    EPW35860   2.952   3.470   0.606  0.4331 -0.1300 -0.4622
 8789WAT      O35861   2.370   6.649   0.946  0.0671  0.4313 -0.1445
 8789WAT     H135862   2.373   6.581   1.002  0.4870  1.0017  0.5488
 8789WAT     H235863   2.297   6.691   0.969  0.0893  0.5056 -0.2111
 8789WAT    EPW35864   2.360   6.645   0.958 -0.1890  0.1710  0.2728
 8790WAT      O35865   6.850   6.948   4.829 -0.8310  0.3475  0.1544
 8790WAT     H135866   6.839   6.915   4.909 -2.5452 -0.2170 -0.2745
 8790WAT     H235867   6.895   6.886   4.787 -1.1451  0.0217  0.2936
 8790WAT    EPW35868   6.855   6.934   4.835  0.2670  0.0492 -0.3036
 8791WAT      O35869   4.869   6.054   1.960  0.0652 -0.1150 -0.1711
 8791WAT     H135870   4.856   6.024   1.879  1.4292 -1.4392  0.0484
 8791WAT     H235871   4.801   6.023   2.005 -1.4192  1.7413 -1.0290
 8791WAT    EPW35872   4.857   6.045   1.955  0.1093 -0.2805  0.3704
 8792WAT      O35873   2.103   2.645   3.635 -0.0958 -0.0136 -0.1194
 8792WAT     H135874   2.179   2.628   3.595 -0.0318 -0.8186  0.3298
 8792WAT     H235875   2.127   2.660   3.718 -0.4065 -0.0802 -0.0171
 8792WAT    EPW35876   2.118   2.645   3.642 -0.2609 -0.2476  0.7671
 8793WAT      O35877   3.800   5.375   1.974 -0.1086 -0.0262  0.7064
 8793WAT     H135878   3.846   5.420   1.914  2.1640 -2.5873  0.3504
 8793WAT     H235879   3.800   5.428   2.043  2.2700  0.6988  0.2481
 8793WAT    EPW35880   3.807   5.390   1.976 -0.1315  0.1411 -0.1299
 8794WAT      O35881   6.544   2.555   2.286 -0.0346  0.5672 -0.2257
 8794WAT     H135882   6.469   2.543   2.242  0.3827  1.0718 -1.0867
 8794WAT     H235883   6.517   2.572   2.367 -0.7902 -2.4547  0.3066
 8794WAT    EPW35884   6.529   2.556   2.292 -0.6499 -0.1570 -0.0420
 8795WAT      O35885   1.742   7.264   6.980 -0.5096 -0.0272  0.3034
 8795WAT     H135886   1.818   7.287   6.942  0.0683  0.5190  1.7293
 8795WAT     H235887   1.765   7.199   7.033 -1.1993 -0.3934  0.1603
 8795WAT    EPW35888   1.757   7.258   6.982 -0.3498  0.5148  0.1878
 8796WAT      O35889   4.123   5.323   6.299  0.2588  0.2640  0.1222
 8796WAT     H135890   4.133   5.407   6.320 -0.6802  0.4463 -0.1059
 8796WAT     H235891   4.067   5.325   6.232 -1.3845 -0.6133  1.3741
 8796WAT    EPW35892   4.116   5.335   6.292 -0.3288 -0.0193  0.3873
 8797WAT      O35893   4.442   6.664   3.035 -0.0813 -0.2338  0.3746
 8797WAT     H135894   4.522   6.676   3.004  0.2148  1.5229  1.6722
 8797WAT     H235895   4.397   6.732   3.004 -0.5436 -0.0952  1.3087
 8797WAT    EPW35896   4.447   6.676   3.026  0.5859  0.7843 -0.0286
 8798WAT      O35897   6.901   0.994   1.457  0.8393 -0.1603 -0.2190
 8798WAT     H135898   6.879   0.910   1.447 -0.9094  0.2780 -0.3873
 8798WAT     H235899   6.898   1.006   1.543 -1.6357  0.3366 -0.2957
 8798WAT    EPW35900   6.898   0.983   1.468 -0.6322 -0.1422 -0.4774
 8799WAT      O35901   2.637   1.164   0.173 -0.2034  0.1760  0.2526
 8799WAT     H135902   2.678   1.231   0.134 -1.1569  1.7993  1.8705
 8799WAT     H235903   2.575   1.203   0.221 -2.4556 -2.0523 -0.6313
 8799WAT    EPW35904   2.634   1.180   0.174  0.5506  0.0824  0.7449
 8800WAT      O35905   5.646   3.161   2.392  0.2749 -0.0681 -0.7299
 8800WAT     H135906   5.562   3.140   2.399  0.0561  0.9130 -0.3519
 8800WAT     H235907   5.646   3.247   2.380  1.1302 -0.2981 -3.0168
 8800WAT    EPW35908   5.634   3.170   2.391 -0.2031  0.0178 -0.1552
 8801WAT      O35909   2.247   6.006   0.308 -0.4682 -0.8719  0.0834
 8801WAT     H135910   2.187   5.962   0.263  1.3328 -3.5619  0.0856
 8801WAT     H235911   2.234   5.979   0.390 -0.3054 -0.1281  0.3656
 8801WAT    EPW35912   2.236   5.995   0.314  0.4490  0.2162  0.0836
 8802WAT      O35913   1.814   5.903   6.680 -0.4331  0.1536 -0.4001
 8802WAT     H135914   1.853   5.852   6.739  0.0108  0.8921 -0.0435
 8802WAT     H235915   1.730   5.900   6.703 -0.4384 -0.5421 -0.4854
 8802WAT    EPW35916   1.807   5.895   6.692  0.1937 -0.0312 -0.0176
 8803WAT      O35917   3.498   6.968   1.263  0.2773  0.0537 -0.0318
 8803WAT     H135918   3.448   7.007   1.202  0.1969  1.0253  0.6429
 8803WAT     H235919   3.547   6.913   1.216 -2.7718 -2.5405 -0.5807
 8803WAT    EPW35920   3.498   6.965   1.247  0.3450 -0.2462 -0.1314
 8804WAT      O35921   1.080   2.246   0.082 -0.3352 -0.4051 -0.5310
 8804WAT     H135922   1.106   2.263   0.164 -0.3189 -2.2644 -0.1110
 8804WAT     H235923   1.005   2.289   0.075 -0.3054 -0.1726  0.4475
 8804WAT    EPW35924   1.073   2.255   0.093  0.3109 -0.0639  0.1757
 8805WAT      O35925   6.640   0.590   2.478  0.3844 -0.2533 -0.0120
 8805WAT     H135926   6.606   0.542   2.415 -3.7937 -0.5382  2.0741
 8805WAT     H235927   6.681   0.533   2.529  0.6373 -0.6015 -0.6068
 8805WAT    EPW35928   6.641   0.575   2.476  0.1526  0.1703 -0.4729
 8806WAT      O35929   6.034   4.286   2.541 -0.2371 -0.1799 -0.1172
 8806WAT     H135930   5.969   4.236   2.511 -0.2258  0.4340 -1.2257
 8806WAT     H235931   5.992   4.349   2.584 -0.5721  1.2072 -2.2817
 8806WAT    EPW35932   6.018   4.288   2.543 -0.9874  0.1993 -0.0880
 8807WAT      O35933   4.476   5.154   3.224 -0.4644  0.1356  0.2536
 8807WAT     H135934   4.529   5.199   3.277  0.8564  0.3953 -1.2165
 8807WAT     H235935   4.420   5.215   3.194  0.2700  0.4867 -0.4396
 8807WAT    EPW35936   4.475   5.170   3.227  0.1004 -0.1760  0.2310
 8808WAT      O35937   2.823   0.048   6.098  0.5158  0.0072  0.2717
 8808WAT     H135938   2.826   0.134   6.113 -1.1408  0.0926  0.2605
 8808WAT     H235939   2.827   0.042   6.011  2.6330 -0.0850  0.3119
 8808WAT    EPW35940   2.824   0.060   6.087 -0.0158  0.2481  0.3259
 8809WAT      O35941   2.655   2.969   0.107 -0.6501 -0.4578 -0.1663
 8809WAT     H135942   2.580   3.006   0.132 -0.2177  0.3445 -0.0162
 8809WAT     H235943   2.641   2.949   0.023 -1.2924 -1.0134  0.0691
 8809WAT    EPW35944   2.642   2.971   0.098 -0.2369 -0.4419 -0.1787
 8810WAT      O35945   2.226   1.891   1.927 -0.1706  0.0021  0.0636
 8810WAT     H135946   2.284   1.857   1.982  0.3276  2.0175  0.8459
 8810WAT     H235947   2.172   1.825   1.911  0.9657 -1.2536  1.1860
 8810WAT    EPW35948   2.227   1.876   1.933 -0.9830 -0.3936  0.3103
 8811WAT      O35949   6.172   6.045   1.885 -0.5100 -0.1594  0.2414
 8811WAT     H135950   6.164   6.128   1.859 -0.0538 -0.2320 -0.1438
 8811WAT     H235951   6.259   6.034   1.891 -0.5046 -1.0306 -1.1210
 8811WAT    EPW35952   6.184   6.056   1.882 -0.2762  0.4392  0.1789
 8812WAT      O35953   1.224   6.928   6.303 -0.6864 -0.1692  0.0042
 8812WAT     H135954   1.298   6.887   6.326 -0.0504  1.3943  0.9604
 8812WAT     H235955   1.188   6.948   6.379 -1.9760 -0.6536 -0.4617
 8812WAT    EPW35956   1.230   6.925   6.317  0.8316  0.6056  0.4539
 8813WAT      O35957   1.366   0.168   7.065  0.1563 -0.0851 -0.1342
 8813WAT     H135958   1.301   0.207   7.108 -0.2926  1.0547 -1.7451
 8813WAT     H235959   1.438   0.195   7.108 -0.3243 -0.1236  0.7240
 8813WAT    EPW35960   1.367   0.178   7.078 -0.0174 -0.5823  0.2901
 8814WAT      O35961   7.263   6.631   4.731  0.1774 -0.1754  0.0334
 8814WAT     H135962   7.237   6.590   4.659 -0.2335 -1.0367  0.6544
 8814WAT     H235963   7.214   6.595   4.794  0.1433  0.9301  0.6752
 8814WAT    EPW35964   7.252   6.620   4.730  0.4189 -0.0137 -0.3298
 8815WAT      O35965   3.949   4.849   1.509 -0.1676  0.4150  0.3124
 8815WAT     H135966   3.878   4.876   1.467 -0.3002  0.3773  0.5121
 8815WAT     H235967   3.951   4.763   1.493 -0.0981  0.4353  0.2068
 8815WAT    EPW35968   3.939   4.840   1.501 -0.7427  0.2856 -0.1511
 8816WAT      O35969   7.515   5.479   3.571 -0.2988 -0.2768 -0.0710
 8816WAT     H135970   7.539   5.419   3.512  1.7945  1.1048 -0.7428
 8816WAT     H235971   7.428   5.476   3.568 -0.2625 -2.4726 -0.8827
 8816WAT    EPW35972   7.506   5.470   3.562 -0.3441  0.3347  0.2472
 8817WAT      O35973   0.596   2.478   0.549  0.2969  0.6796 -0.2128
 8817WAT     H135974   0.674   2.439   0.553 -0.0363 -0.0391 -0.3668
 8817WAT     H235975   0.558   2.439   0.480 -0.9572 -0.4789  1.0648
 8817WAT    EPW35976   0.601   2.466   0.539  0.3726 -0.0690 -0.2545
 8818WAT      O35977   2.800   7.078   7.365 -0.3323 -0.0799 -0.3903
 8818WAT     H135978   2.814   7.061   7.280  1.3911 -1.3654  0.0791
 8818WAT     H235979   2.753   7.010   7.392 -0.8856  0.3320 -0.2886
 8818WAT    EPW35980   2.795   7.066   7.356 -0.1846  0.1474  0.1046
 8819WAT      O35981   2.011   5.656   0.295  0.4479 -0.6866  0.3260
 8819WAT     H135982   2.057   5.695   0.232  0.8801 -2.0573 -0.2421
 8819WAT     H235983   2.068   5.601   0.332 -0.1742 -0.8941  1.0173
 8819WAT    EPW35984   2.026   5.653   0.291 -0.2732 -0.3713  0.1863
 8820WAT      O35985   6.094   0.582   3.484 -0.7809  0.6675  0.7262
 8820WAT     H135986   6.091   0.495   3.495  1.3178  0.3238 -0.7649
 8820WAT     H235987   6.145   0.609   3.549 -0.7883  0.6676  0.7321
 8820WAT    EPW35988   6.102   0.573   3.495  0.0931 -0.4453 -0.8742
 8821WAT      O35989   7.036   5.578   5.309 -0.3441  0.1804 -0.1861
 8821WAT     H135990   6.973   5.567   5.369 -0.4955  0.8185 -0.2277
 8821WAT     H235991   7.074   5.653   5.331  0.2332 -0.0652 -0.3221
 8821WAT    EPW35992   7.032   5.587   5.321  0.1249 -0.1501 -0.2620
 8822WAT      O35993   0.356   5.822   0.421  0.1410  0.0726 -0.5006
 8822WAT     H135994   0.345   5.889   0.367 -1.0427 -0.3187 -0.7777
 8822WAT     H235995   0.317   5.755   0.380 -1.1627 -0.1403  0.9700
 8822WAT    EPW35996   0.348   5.822   0.407 -0.0409 -0.3492 -0.5787
 8823WAT      O35997   4.868   4.220   6.059  0.2878  0.3080 -0.1681
 8823WAT     H135998   4.789   4.206   6.094  1.0300  1.1038  1.9817
 8823WAT     H235999   4.865   4.303   6.033  0.2275  0.1524 -0.6710
 8823WAT    EPW36000   4.856   4.230   6.060 -0.1243 -0.0096 -0.8787
 8824WAT      O36001   1.487   6.505   4.769 -0.3931 -0.5031  0.4913
 8824WAT     H136002   1.564   6.492   4.809 -1.5093 -0.2329  2.8496
 8824WAT     H236003   1.437   6.441   4.801 -1.1333 -0.8184 -1.2008
 8824WAT    EPW36004   1.491   6.494   4.779  0.2000 -0.1090  0.5078
 8825WAT      O36005   3.640   5.899   1.260  1.1944  0.5242 -0.6314
 8825WAT     H136006   3.641   5.881   1.345 -0.5164  0.1189 -0.6619
 8825WAT     H236007   3.688   5.835   1.225  0.4744 -0.3311 -0.1158
 8825WAT    EPW36008   3.647   5.887   1.267 -0.1563  0.1940  0.6153
 8826WAT      O36009   7.461   0.357   5.917 -0.3228 -0.4687 -0.1906
 8826WAT     H136010   7.489   0.364   5.999  1.9065  1.0038 -0.9726
 8826WAT     H236011   7.461   0.271   5.902  0.0810 -0.7076  1.0746
 8826WAT    EPW36012   7.465   0.345   5.927 -0.1478  0.3965 -0.1194
 8827WAT      O36013   5.351   7.053   0.631 -0.6943 -0.1212  0.0732
 8827WAT     H136014   5.347   7.133   0.664 -0.6359 -0.5355  1.1282
 8827WAT     H236015   5.402   7.010   0.686 -1.3808 -1.0949 -0.0103
 8827WAT    EPW36016   5.358   7.058   0.644  0.2413 -0.0980  0.1283
 8828WAT      O36017   6.360   5.553   3.129 -0.2839 -0.0026  0.3484
 8828WAT     H136018   6.305   5.497   3.167 -1.0670  0.9165  0.6038
 8828WAT     H236019   6.309   5.595   3.071  0.0773  1.0468  0.7755
 8828WAT    EPW36020   6.344   5.551   3.126 -0.2018  0.0153 -0.3496
 8829WAT      O36021   0.225   4.807   0.633  0.0454  0.0262  0.0890
 8829WAT     H136022   0.255   4.873   0.681 -0.7293 -0.6242  1.5491
 8829WAT     H236023   0.233   4.738   0.685  0.8108 -1.0700 -1.3895
 8829WAT    EPW36024   0.230   4.806   0.648 -0.1549  0.1723 -0.1533
 8830WAT      O36025   4.309   3.181   5.385 -0.1074 -0.1367 -0.1489
 8830WAT     H136026   4.247   3.231   5.420  0.8881  0.0266  1.5125
 8830WAT     H236027   4.382   3.209   5.424  1.1506  0.1608 -2.5505
 8830WAT    EPW36028   4.311   3.192   5.396 -0.4244  0.1095 -0.7713
 8831WAT      O36029   2.579   5.937   1.608 -0.0306  0.6318 -0.0795
 8831WAT     H136030   2.533   5.924   1.535 -0.9766 -1.4406  0.8084
 8831WAT     H236031   2.660   5.914   1.585 -0.5307 -1.1604 -0.2359
 8831WAT    EPW36032   2.584   5.931   1.593  0.3465  0.0224  0.1043
 8832WAT      O36033   1.483   3.800   3.443  0.4357  0.5582  0.2771
 8832WAT     H136034   1.398   3.820   3.446  0.9165  2.8744  1.2908
 8832WAT     H236035   1.514   3.831   3.519  2.0495 -1.1089  0.3792
 8832WAT    EPW36036   1.475   3.808   3.455 -0.1976  0.4912 -0.0206
 8833WAT      O36037   3.063   1.000   1.340 -0.0215  0.4880 -0.2292
 8833WAT     H136038   3.057   1.038   1.262 -3.0243  2.5914  0.8605
 8833WAT     H236039   2.990   0.953   1.346 -0.7472  1.7435  1.8991
 8833WAT    EPW36040   3.052   0.999   1.329  0.7352 -0.2149 -0.4632
 8834WAT      O36041   1.311   5.219   5.502  0.2455  0.0963  0.1853
 8834WAT     H136042   1.242   5.188   5.459  0.3252  1.2710 -0.8464
 8834WAT     H236043   1.290   5.207   5.586 -0.9302 -0.1329 -0.1281
 8834WAT    EPW36044   1.298   5.212   5.508 -0.3886 -0.1281  0.4474
 8835WAT      O36045   3.782   0.923   4.992 -0.2362  0.1445 -0.0901
 8835WAT     H136046   3.749   0.924   4.911 -2.1336  0.5152  0.6400
 8835WAT     H236047   3.720   0.883   5.039 -0.9021  3.1302  1.8328
 8835WAT    EPW36048   3.768   0.917   4.987 -0.0969  0.5164  0.3368
 8836WAT      O36049   4.952   4.885   1.620  0.3198 -0.1457 -0.2681
 8836WAT     H136050   5.021   4.876   1.566 -1.4154 -0.7480 -2.5193
 8836WAT     H236051   4.928   4.803   1.637  1.2740 -0.0070  2.1857
 8836WAT    EPW36052   4.959   4.872   1.614 -0.1968  0.2743  0.3638
 8837WAT      O36053   0.345   7.000   5.560  0.6069 -0.2797  0.2710
 8837WAT     H136054   0.354   6.915   5.575  1.0281 -0.1921  0.5357
 8837WAT     H236055   0.269   7.020   5.598  1.1300 -0.2847  1.3408
 8837WAT    EPW36056   0.335   6.991   5.568  0.4845  0.2822  0.3022
 8838WAT      O36057   5.733   6.081   5.152  0.1912  0.1082  0.9820
 8838WAT     H136058   5.731   5.995   5.138  0.0455 -0.0742  2.0822
 8838WAT     H236059   5.779   6.111   5.084 -0.8727 -0.6788 -0.1175
 8838WAT    EPW36060   5.739   6.073   5.140  0.5856  0.0765 -0.4305
 8839WAT      O36061   5.135   6.365   4.700  0.4663 -0.0135  0.1488
 8839WAT     H136062   5.086   6.436   4.714  1.8797  0.9125  0.7102
 8839WAT     H236063   5.147   6.333   4.780 -1.8121 -2.1506 -0.2332
 8839WAT    EPW36064   5.130   6.371   4.714  0.1942  0.5226 -0.1019
 8840WAT      O36065   0.765   5.461   6.521 -0.5435 -0.3031  0.1725
 8840WAT     H136066   0.774   5.495   6.441  0.1347  1.1992  0.8339
 8840WAT     H236067   0.819   5.393   6.521  0.7956  0.7055 -0.1497
 8840WAT    EPW36068   0.774   5.456   6.509 -0.2798  0.3464 -0.2839
 8841WAT      O36069   4.926   0.951   6.539 -0.3163  0.1588  0.1243
 8841WAT     H136070   4.880   0.887   6.577  0.4032 -0.2482  0.3174
 8841WAT     H236071   4.953   0.915   6.464  1.1161 -0.1932  0.7860
 8841WAT    EPW36072   4.923   0.937   6.533 -0.1550 -0.5103  0.3377
 8842WAT      O36073   1.648   1.075   2.580  0.4722 -0.2633 -0.1535
 8842WAT     H136074   1.592   1.142   2.581 -0.2594 -0.8712 -0.3291
 8842WAT     H236075   1.629   1.032   2.654 -0.8427 -1.7329 -1.3013
 8842WAT    EPW36076   1.637   1.079   2.591  0.2394 -0.2235 -0.7894
 8843WAT      O36077   1.962   4.432   5.332 -0.0427 -0.0999  0.4806
 8843WAT     H136078   1.876   4.441   5.320 -0.1647 -0.7935  0.7861
 8843WAT     H236079   1.984   4.501   5.382 -0.4662 -0.0627  0.6149
 8843WAT    EPW36080   1.953   4.444   5.338  0.0508  0.4325 -0.3517
 8844WAT      O36081   6.025   4.589   2.635  0.3515 -0.0612 -0.4137
 8844WAT     H136082   6.110   4.579   2.652  0.2291 -1.2553 -0.4687
 8844WAT     H236083   5.995   4.633   2.704  0.9908  0.3352 -0.3753
 8844WAT    EPW36084   6.033   4.594   2.647 -0.2822  0.1811 -0.3460
 8845WAT      O36085   5.764   6.873   6.190 -0.0295  0.3083  0.2594
 8845WAT     H136086   5.791   6.792   6.210  0.3022  0.1515 -0.7522
 8845WAT     H236087   5.822   6.900   6.130 -0.4930  1.0592  0.1357
 8845WAT    EPW36088   5.777   6.865   6.184  0.5183 -0.2694  0.6622
 8846WAT      O36089   4.289   5.407   4.178  0.2143 -0.1131 -0.0599
 8846WAT     H136090   4.221   5.460   4.185  0.2782  0.2741 -1.8704
 8846WAT     H236091   4.314   5.394   4.260 -1.9144 -0.1270  0.6443
 8846WAT    EPW36092   4.283   5.413   4.191  0.1604  0.0352  0.0152
 8847WAT      O36093   7.479   4.370   6.899  0.3428 -0.5476  0.1559
 8847WAT     H136094   7.471   4.310   6.836 -0.4241 -1.2682  0.9154
 8847WAT     H236095   7.565   4.371   6.916  0.6113 -0.1133 -1.0869
 8847WAT    EPW36096   7.491   4.362   6.893 -0.3770  0.5457 -0.3493
 8848WAT      O36097   4.191   5.961   1.164 -0.2479 -0.5002  0.1474
 8848WAT     H136098   4.149   5.890   1.191  0.2422 -1.3079 -1.1345
 8848WAT     H236099   4.274   5.946   1.184 -0.2594  0.1450  0.7256
 8848WAT    EPW36100   4.197   5.949   1.171  0.0045 -0.1047 -1.2630
 8849WAT      O36101   5.549   1.799   3.993 -0.2276 -0.2501 -0.6360
 8849WAT     H136102   5.503   1.799   3.918  1.4272  1.9491 -1.7755
 8849WAT     H236103   5.517   1.867   4.036  0.8675  0.3865 -0.7791
 8849WAT    EPW36104   5.537   1.809   3.988 -0.3726 -0.3377 -0.0584
 8850WAT      O36105   2.155   0.072   2.577 -0.2575  0.0579  0.0349
 8850WAT     H136106   2.232   0.112   2.583 -0.5237  0.6094 -0.1470
 8850WAT     H236107   2.161   0.008   2.636  0.6039 -0.3676 -0.4914
 8850WAT    EPW36108   2.167   0.068   2.587  0.3180  0.5173 -0.2495
 8851WAT      O36109   5.009   5.061   0.838  0.0991  0.2621  0.2648
 8851WAT     H136110   5.055   5.021   0.776 -0.9863 -0.1325 -0.2915
 8851WAT     H236111   5.001   5.143   0.809  0.5863  0.3787  0.4470
 8851WAT    EPW36112   5.015   5.067   0.825  0.5683 -0.1649 -0.0910
 8852WAT      O36113   1.953   4.861   5.856 -0.1025  0.7017 -0.1427
 8852WAT     H136114   1.893   4.879   5.795  1.4072 -0.2370 -1.9894
 8852WAT     H236115   1.918   4.794   5.900 -0.3676  0.0979 -1.2484
 8852WAT    EPW36116   1.939   4.854   5.854  0.3128  0.0961  0.0318
 8853WAT      O36117   0.299   7.123   3.501 -0.1134 -0.0039  0.0502
 8853WAT     H136118   0.355   7.079   3.552 -0.0279  0.7922  0.6525
 8853WAT     H236119   0.237   7.064   3.485  0.2312 -0.4967  0.4681
 8853WAT    EPW36120   0.298   7.108   3.506 -0.0312  0.1186 -0.2198
 8854WAT      O36121   3.110   1.948   0.573 -0.5511  0.2651  0.2083
 8854WAT     H136122   3.167   1.932   0.637 -1.1259 -2.8837  0.0913
 8854WAT     H236123   3.158   1.940   0.500 -0.8861 -1.6249  0.1393
 8854WAT    EPW36124   3.126   1.944   0.571 -0.7368  0.2124 -0.0471
 8855WAT      O36125   2.969   1.206   1.529  0.2876 -0.1750  0.3854
 8855WAT     H136126   2.998   1.165   1.458 -0.7668  1.0504 -0.8031
 8855WAT     H236127   3.011   1.282   1.527 -2.2309  1.3382 -0.9670
 8855WAT    EPW36128   2.979   1.211   1.518  0.2948  0.3055  0.7786
 8856WAT      O36129   4.453   5.662   1.637 -0.4964 -0.2159  0.0455
 8856WAT     H136130   4.539   5.679   1.639 -0.5128 -0.1050 -0.2295
 8856WAT     H236131   4.421   5.722   1.583 -0.4832 -1.4350 -1.3659
 8856WAT    EPW36132   4.461   5.673   1.630 -0.3098  0.5352  0.4269
 8857WAT      O36133   7.167   4.872   7.360  0.2274 -0.2544 -0.4660
 8857WAT     H136134   7.097   4.895   7.314 -0.7560 -1.2629  0.4743
 8857WAT     H236135   7.234   4.892   7.307 -0.6638  1.7767 -0.9408
 8857WAT    EPW36136   7.167   4.879   7.345  0.2346  0.1516  0.3814
 8858WAT      O36137   4.009   5.370   0.883  0.1096  0.6992  0.0990
 8858WAT     H136138   4.034   5.287   0.889  0.3016  0.8069  1.0010
 8858WAT     H236139   3.972   5.386   0.961 -0.5747  1.2482 -0.3285
 8858WAT    EPW36140   4.007   5.360   0.896 -0.3164  0.3671  0.4417
 8859WAT      O36141   7.139   5.291   1.955 -0.0140 -0.0714  0.2447
 8859WAT     H136142   7.055   5.313   1.961  0.2668  1.4082 -0.7199
 8859WAT     H236143   7.165   5.330   1.881  1.6665 -0.0172  0.8243
 8859WAT    EPW36144   7.131   5.300   1.945 -0.0591 -0.0088 -0.4961
 8860WAT      O36145   3.241   0.466   3.270 -0.2570  0.0946 -0.0621
 8860WAT     H136146   3.202   0.541   3.291 -0.6936 -0.7570  2.5175
 8860WAT     H236147   3.175   0.415   3.245 -0.4284 -0.3671  1.2563
 8860WAT    EPW36148   3.225   0.470   3.269 -0.4317  0.6080  0.9140
 8861WAT      O36149   0.046   0.272   1.731 -0.0247  0.3720  0.1459
 8861WAT     H136150  -0.013   0.268   1.666 -1.2892  1.4869  1.1607
 8861WAT     H236151   0.067   0.189   1.744  1.0455  0.1650 -2.3397
 8861WAT    EPW36152   0.040   0.259   1.723 -0.5370  0.1942  0.2454
 8862WAT      O36153   4.362   7.169   2.560  0.4038  0.0423 -0.1093
 8862WAT     H136154   4.348   7.124   2.486 -0.6828 -0.5748  0.4490
 8862WAT     H236155   4.375   7.251   2.531  1.4304 -0.4279 -1.0723
 8862WAT    EPW36156   4.362   7.175   2.545 -0.4411 -0.0979  0.3636
 8863WAT      O36157   4.821   1.444   5.910 -0.2813 -0.0485 -0.0961
 8863WAT     H136158   4.856   1.394   5.972 -0.8935 -2.6069 -1.6454
 8863WAT     H236159   4.755   1.397   5.880 -0.8591  1.6831 -1.7734
 8863WAT    EPW36160   4.817   1.430   5.914  0.1934 -0.0381  0.7828
 8864WAT      O36161   7.174   0.775   3.130  0.1027 -0.2665  0.2452
 8864WAT     H136162   7.111   0.824   3.094 -0.3156  0.1701  1.5110
 8864WAT     H236163   7.244   0.792   3.081 -0.2221  1.0207  0.1872
 8864WAT    EPW36164   7.175   0.784   3.118 -0.2583  0.0310  0.0561
 8865WAT      O36165   5.300   2.366   2.596  0.2449  0.8094 -0.4827
 8865WAT     H136166   5.297   2.281   2.573 -0.3618  0.7436 -0.2060
 8865WAT     H236167   5.275   2.407   2.524 -0.3637  0.6875 -0.3494
 8865WAT    EPW36168   5.296   2.359   2.582 -0.0156 -0.1280  0.2981
 8866WAT      O36169   0.212   2.743   7.444  0.1086 -0.3142  0.1774
 8866WAT     H136170   0.246   2.772   7.519 -0.0815  0.2884  0.0379
 8866WAT     H236171   0.276   2.758   7.386  0.9233 -2.3170  0.4747
 8866WAT    EPW36172   0.226   2.750   7.447 -0.8451 -0.3270  0.1327
 8867WAT      O36173   0.676   7.215   2.449  0.2282  0.0677  0.3657
 8867WAT     H136174   0.682   7.227   2.363  1.4923 -1.2005  0.2319
 8867WAT     H236175   0.595   7.241   2.469 -0.5310 -0.7865 -1.4209
 8867WAT    EPW36176   0.665   7.220   2.440  0.0529 -0.4254  0.4413
 8868WAT      O36177   1.737   1.853   3.404  0.5065  0.2681 -0.1746
 8868WAT     H136178   1.688   1.782   3.389 -0.3716  0.6056  0.9375
 8868WAT     H236179   1.685   1.919   3.380  1.3581  0.5522 -1.3071
 8868WAT    EPW36180   1.722   1.852   3.398  0.2259  0.0271 -0.6002
 8869WAT      O36181   3.355   5.338   4.075  0.3926  0.1150 -0.0502
 8869WAT     H136182   3.325   5.258   4.056 -0.2145  0.3639 -0.1765
 8869WAT     H236183   3.398   5.361   4.003 -0.9532  0.6057 -0.7400
 8869WAT    EPW36184   3.357   5.329   4.062  0.6912 -0.2889  0.3926
 8870WAT      O36185   2.433   4.415   3.453  0.3187 -0.1928 -0.3755
 8870WAT     H136186   2.425   4.498   3.430 -1.3406 -0.6474 -1.6402
 8870WAT     H236187   2.496   4.385   3.400 -1.1843 -0.4278 -2.1176
 8870WAT    EPW36188   2.441   4.423   3.442 -0.0241 -0.9508  0.1037
 8871WAT      O36189   7.367   5.377   2.169 -0.5395 -0.0902  0.3221
 8871WAT     H136190   7.345   5.300   2.134 -2.3637  0.3410  0.3971
 8871WAT     H236191   7.391   5.425   2.100  1.2505 -0.8768  0.3462
 8871WAT    EPW36192   7.367   5.373   2.154 -0.1506  0.4254  0.0517
 8872WAT      O36193   1.499   7.455   5.948  0.1892 -0.6369  0.0846
 8872WAT     H136194   1.437   7.484   6.003 -1.3020 -1.2079 -1.2387
 8872WAT     H236195   1.552   7.524   5.940 -0.8615  0.2478  0.4140
 8872WAT    EPW36196   1.497   7.470   5.955 -0.3406 -0.1970 -0.6239
 8873WAT      O36197   6.288   0.515   7.479  0.1576 -0.2395  0.9470
 8873WAT     H136198   6.306   0.430   7.479  0.6520 -0.1392  0.5564
 8873WAT     H236199   6.359   0.551   7.516 -0.4468 -0.0688  1.9923
 8873WAT    EPW36200   6.302   0.508   7.485  0.0946 -0.2190 -0.1695
 8874WAT      O36201   7.340   2.409   6.516 -0.2724 -0.8013 -0.7652
 8874WAT     H136202   7.307   2.488   6.532  0.4354 -0.5726 -0.4245
 8874WAT     H236203   7.396   2.423   6.451 -0.2894 -1.0580 -0.8344
 8874WAT    EPW36204   7.343   2.423   6.509  0.0534 -0.3305  0.3839
 8875WAT      O36205   2.504   3.421   0.788 -0.6424 -0.4797  0.1191
 8875WAT     H136206   2.451   3.353   0.772  0.5580 -1.1703 -1.2090
 8875WAT     H236207   2.508   3.462   0.711 -0.0550  0.1570  0.4788
 8875WAT    EPW36208   2.497   3.417   0.774 -0.1759  0.1317 -0.6111
 8876WAT      O36209   1.206   1.225   2.758 -0.0850 -0.1446  0.5835
 8876WAT     H136210   1.270   1.220   2.698 -1.9761  0.9959 -1.7059
 8876WAT     H236211   1.171   1.145   2.757 -1.4074  0.3870 -1.5110
 8876WAT    EPW36212   1.211   1.213   2.749  0.1967 -0.0381 -0.5306
 8877WAT      O36213   1.985   7.178   1.326  0.0467  0.7429 -0.5875
 8877WAT     H136214   1.934   7.239   1.289 -1.7453 -0.8709 -0.9215
 8877WAT     H236215   1.951   7.167   1.405  0.3568  0.1868 -0.5236
 8877WAT    EPW36216   1.973   7.186   1.332 -0.3365  0.1425 -0.0991
 8878WAT      O36217   7.517   3.608   1.288  0.0435  0.5148  0.2147
 8878WAT     H136218   7.523   3.538   1.236 -2.3525  0.6123 -0.3197
 8878WAT     H236219   7.544   3.579   1.366  1.8662 -0.1575 -0.6187
 8878WAT    EPW36220   7.522   3.593   1.292 -0.7468  0.1274  0.0160
 8879WAT      O36221   2.461   4.558   5.829  0.5259 -0.1146 -0.3154
 8879WAT     H136222   2.526   4.615   5.839  1.6420 -1.4758  0.4367
 8879WAT     H236223   2.490   4.503   5.769 -0.1668 -0.4249 -0.3794
 8879WAT    EPW36224   2.475   4.559   5.822 -0.3778  0.3577  0.0389
 8880WAT      O36225   0.025   4.944   1.283 -0.1813 -0.6617 -0.9401
 8880WAT     H136226  -0.047   4.900   1.261 -0.1501 -2.5321  2.1373
 8880WAT     H236227   0.080   4.883   1.312  0.4413  1.0861  2.1299
 8880WAT    EPW36228   0.022   4.929   1.284 -0.0773 -0.1270  0.2905
 8881WAT      O36229   3.850   6.693   3.005 -0.2974 -0.2149  0.6013
 8881WAT     H136230   3.769   6.726   2.995 -1.3858 -2.3567  1.6759
 8881WAT     H236231   3.870   6.665   2.925 -0.1548  1.2402  0.1029
 8881WAT    EPW36232   3.841   6.694   2.992  0.0532 -0.1736 -0.3680
 8882WAT      O36233   3.355   0.253   4.259  0.4929  0.0985  0.2508
 8882WAT     H136234   3.370   0.168   4.249  0.5097  0.1432 -0.1143
 8882WAT     H236235   3.269   0.261   4.243  0.6890  0.3009 -0.7449
 8882WAT    EPW36236   3.344   0.242   4.256 -0.2736 -0.3518  0.2813
 8883WAT      O36237   5.045   5.912   5.179  1.0890 -0.9985  0.1879
 8883WAT     H136238   5.111   5.876   5.223  1.0416 -2.3847 -0.8246
 8883WAT     H236239   5.048   5.873   5.101 -0.0050  0.0086 -0.3877
 8883WAT    EPW36240   5.055   5.901   5.174  0.6030  0.7371  0.1741
 8884WAT      O36241   0.510   1.843   4.041 -0.2298 -0.1290 -0.1144
 8884WAT     H136242   0.577   1.890   4.072 -1.3411  2.0208 -0.7799
 8884WAT     H236243   0.527   1.837   3.956 -0.2211 -0.7653 -0.0742
 8884WAT    EPW36244   0.522   1.849   4.033 -0.0736 -0.0818 -0.3358
 8885WAT      O36245   1.399   6.126   0.146 -0.1167  0.4037  0.1338
 8885WAT     H136246   1.375   6.111   0.228  2.8912  0.1593  1.1046
 8885WAT     H236247   1.409   6.213   0.144  0.7864  0.3160  0.3765
 8885WAT    EPW36248   1.397   6.137   0.158  0.0582 -0.0385  0.6119
 8886WAT      O36249   4.394   5.351   2.817 -0.0940 -0.5539  0.0802
 8886WAT     H136250   4.389   5.425   2.772 -1.3669 -1.1916 -0.9122
 8886WAT     H236251   4.461   5.309   2.780 -0.9931 -0.9785 -1.1361
 8886WAT    EPW36252   4.403   5.356   2.805 -0.3256  0.1527 -0.1604
 8887WAT      O36253   1.675   2.966   4.372 -0.1054 -0.2652  0.2574
 8887WAT     H136254   1.674   3.037   4.321  1.9284 -1.3792 -1.4853
 8887WAT     H236255   1.738   2.983   4.429  0.5453 -0.7126 -0.3072
 8887WAT    EPW36256   1.684   2.979   4.373 -0.0162 -0.3682  0.1829
 8888WAT      O36257   1.721   0.706   4.862 -0.3822 -0.7676 -0.2842
 8888WAT     H136258   1.738   0.628   4.828  0.4201 -1.6401  1.9304
 8888WAT     H236259   1.741   0.697   4.946  1.4121  2.3001 -0.2153
 8888WAT    EPW36260   1.727   0.693   4.869  0.3084 -0.1642 -0.8552
 8889WAT      O36261   0.424   4.782   3.101 -0.1469  0.1950 -0.5756
 8889WAT     H136262   0.369   4.733   3.055 -0.6894 -0.2097  0.4695
 8889WAT     H236263   0.379   4.802   3.172  0.3783  1.5036 -0.5844
 8889WAT    EPW36264   0.409   4.778   3.105  0.1586  0.1847  0.3299
 8890WAT      O36265   4.681   1.686   5.933  0.4838 -0.3056 -0.2629
 8890WAT     H136266   4.713   1.605   5.931  1.3780 -0.0742  1.9523
 8890WAT     H236267   4.751   1.735   5.947 -0.0946  0.8467 -1.2346
 8890WAT    EPW36268   4.696   1.681   5.935 -0.1548 -0.0315 -0.2214
 8891WAT      O36269   6.798   3.429   4.882 -0.1235  0.3934 -0.8071
 8891WAT     H136270   6.835   3.364   4.926 -1.2490 -1.3631 -2.3036
 8891WAT     H236271   6.866   3.474   4.850  0.7719 -1.5708 -1.8347
 8891WAT    EPW36272   6.814   3.426   4.884 -0.3463  0.3075  0.6825
 8892WAT      O36273   2.215   5.154   6.491 -0.8461 -0.2451 -0.1587
 8892WAT     H136274   2.190   5.083   6.535 -1.7586  0.6357  0.7944
 8892WAT     H236275   2.300   5.140   6.476 -0.3561 -0.3805  2.3500
 8892WAT    EPW36276   2.224   5.141   6.495 -0.5262 -0.3671 -0.1433
 8893WAT      O36277   3.997   4.483   1.035 -0.1164  0.3864 -0.1166
 8893WAT     H136278   4.041   4.419   1.073  1.2266  0.6663 -1.1415
 8893WAT     H236279   3.936   4.441   0.989 -1.0740  0.0041  1.4178
 8893WAT    EPW36280   3.994   4.467   1.034 -0.1406 -0.6939  0.1532
 8894WAT      O36281   0.434   7.352   2.572  0.4320 -0.1100 -0.2326
 8894WAT     H136282   0.399   7.320   2.499  1.4305 -1.3229 -0.2013
 8894WAT     H236283   0.448   7.436   2.553 -0.8298 -0.0110 -0.8468
 8894WAT    EPW36284   0.431   7.360   2.559 -0.1224 -0.0219  0.6883
 8895WAT      O36285   1.996   6.969   4.573  0.1448 -0.2741 -0.5274
 8895WAT     H136286   1.913   6.943   4.586  0.3455 -0.4019  0.5801
 8895WAT     H236287   1.987   7.037   4.518 -0.5948 -0.9792 -1.3103
 8895WAT    EPW36288   1.982   6.975   4.566  0.6873  0.7531 -0.4192
 8896WAT      O36289   3.353   5.370   5.175 -0.5139  0.9731 -0.0440
 8896WAT     H136290   3.318   5.295   5.147  1.9949  0.1616 -1.2445
 8896WAT     H236291   3.397   5.347   5.246 -1.5679  1.8098  0.9228
 8896WAT    EPW36292   3.354   5.356   5.181 -0.1701  0.5209  0.5792
 8897WAT      O36293   1.856   4.390   4.504  0.4411  0.3718  0.0587
 8897WAT     H136294   1.886   4.460   4.462 -1.5932  1.0265 -0.4459
 8897WAT     H236295   1.869   4.409   4.588  2.0663  0.2594 -0.1341
 8897WAT    EPW36296   1.862   4.403   4.510 -0.0999 -0.2703 -0.2208
 8898WAT      O36297   4.048   2.913   0.238 -0.1791 -0.0977  0.1455
 8898WAT     H136298   4.095   2.881   0.305 -0.3124 -1.6518 -0.4592
 8898WAT     H236299   4.070   2.861   0.172  0.2789  1.6659 -1.1557
 8898WAT    EPW36300   4.059   2.901   0.238 -0.4566  0.3049  0.5527
 8899WAT      O36301   1.143   3.230   4.902  0.5559  0.1009 -1.0428
 8899WAT     H136302   1.061   3.198   4.897  1.1092 -1.3728 -1.3098
 8899WAT     H236303   1.188   3.177   4.849  1.8400  0.3673 -0.2435
 8899WAT    EPW36304   1.137   3.217   4.893  0.6279  0.3707 -0.0871
 8900WAT      O36305   6.567   0.242   0.535  0.1799  0.3047  0.3634
 8900WAT     H136306   6.570   0.158   0.513 -1.2440  0.5530 -0.9100
 8900WAT     H236307   6.591   0.284   0.462 -0.0259  1.0273  0.6963
 8900WAT    EPW36308   6.571   0.236   0.521  0.0106 -0.3287  0.2673
 8901WAT      O36309   1.903   2.798   5.036 -0.0721  0.0341  0.2414
 8901WAT     H136310   1.846   2.864   5.039 -0.1980 -0.1043  1.1435
 8901WAT     H236311   1.904   2.776   4.951  2.3660  3.2482 -0.8141
 8901WAT    EPW36312   1.895   2.805   5.024  0.0851 -0.6287  0.4836
 8902WAT      O36313   6.898   4.698   5.015 -0.5084 -0.2990 -0.9176
 8902WAT     H136314   6.825   4.714   5.061  1.2295 -3.3667  3.6343
 8902WAT     H236315   6.870   4.645   4.951 -2.3604 -2.0871  1.1937
 8902WAT    EPW36316   6.883   4.693   5.012  0.2933  0.6727  0.6465
 8903WAT      O36317   7.341   6.142   6.745 -0.1917  0.2499  0.0904
 8903WAT     H136318   7.272   6.102   6.779 -0.8501  1.5808  0.3975
 8903WAT     H236319   7.348   6.108   6.665 -1.3773  0.2956 -0.0480
 8903WAT    EPW36320   7.332   6.131   6.739 -0.7295  0.1066  0.5534
 8904WAT      O36321   2.261   5.500   2.991  0.3720 -0.5559  0.3361
 8904WAT     H136322   2.235   5.506   3.074 -0.6431 -1.3709  0.0978
 8904WAT     H236323   2.343   5.470   2.997  1.1466  1.5557  1.0865
 8904WAT    EPW36324   2.269   5.496   3.004  0.4184  0.2084 -0.2656
 8905WAT      O36325   4.294   6.362   2.059  0.2655 -0.2029 -0.1414
 8905WAT     H136326   4.311   6.412   1.990 -2.2164  0.6177 -0.2704
 8905WAT     H236327   4.229   6.311   2.032 -1.2159  0.5583  1.7030
 8905WAT    EPW36328   4.287   6.362   2.045  0.1965  0.1909  0.3320
 8906WAT      O36329   6.453   6.100   5.639 -0.0451  0.3483  0.2255
 8906WAT     H136330   6.495   6.135   5.707  0.8763 -2.0733  1.0337
 8906WAT     H236331   6.500   6.126   5.570 -0.2607  1.8232  0.6102
 8906WAT    EPW36332   6.466   6.109   5.639 -0.1862  0.0060  0.1490
 8907WAT      O36333   5.179   6.049   3.132  0.3818 -0.0336 -0.1488
 8907WAT     H136334   5.103   6.069   3.170  0.4342  0.3510 -0.2403
 8907WAT     H236335   5.216   5.991   3.187  0.1334 -0.0352  0.0153
 8907WAT    EPW36336   5.173   6.043   3.145 -0.1571  0.3100  0.7217
 8908WAT      O36337   6.726   5.624   7.542  0.6287  0.0265 -0.4761
 8908WAT     H136338   6.810   5.621   7.520  0.3585  0.1680 -1.6181
 8908WAT     H236339   6.692   5.681   7.485 -0.3176 -0.3884 -0.3581
 8908WAT    EPW36340   6.733   5.632   7.530 -0.2630 -0.0526  0.3306
 8909WAT      O36341   3.208   2.106   5.545 -0.0752  0.2552 -0.0081
 8909WAT     H136342   3.186   2.190   5.542 -0.3105  0.1631 -1.9018
 8909WAT     H236343   3.295   2.107   5.556  0.1685  0.8053 -1.7376
 8909WAT    EPW36344   3.218   2.118   5.546 -0.2671 -0.2005  0.0222
 8910WAT      O36345   6.341   4.670   0.586  0.1602  0.4002 -0.4454
 8910WAT     H136346   6.298   4.735   0.545  0.8572  0.0989 -1.7117
 8910WAT     H236347   6.413   4.661   0.538  0.2961 -1.0047  0.0025
 8910WAT    EPW36348   6.345   4.678   0.573 -0.4130 -0.2558 -0.6576
 8911WAT      O36349   6.639   5.523   4.835 -0.4947  0.1680  0.1292
 8911WAT     H136350   6.631   5.602   4.870  2.0516  0.8957 -0.6571
 8911WAT     H236351   6.629   5.538   4.749  0.1608 -0.3048 -0.0390
 8911WAT    EPW36352   6.636   5.537   4.827 -0.1287 -0.0204  0.5074
 8912WAT      O36353   6.505   2.150   7.113  0.4776 -0.1891  0.5302
 8912WAT     H136354   6.482   2.234   7.117  0.4359 -0.2267  1.1335
 8912WAT     H236355   6.552   2.138   7.185  1.8573 -0.2854 -0.3498
 8912WAT    EPW36356   6.508   2.160   7.124 -0.1668  0.6153 -0.1448
 8913WAT      O36357   1.165   6.207   0.834  0.3275 -0.1242 -0.3901
 8913WAT     H136358   1.138   6.199   0.916 -0.0362  1.1886 -0.3582
 8913WAT     H236359   1.130   6.283   0.808  0.9787 -0.1911 -1.5343
 8913WAT    EPW36360   1.156   6.217   0.842 -0.0090  0.0841  0.1255
 8914WAT      O36361   2.032   5.787   7.388  0.3179 -0.0226  0.0417
 8914WAT     H136362   2.063   5.729   7.445 -0.2564  0.0649  0.4546
 8914WAT     H236363   1.950   5.761   7.375 -0.4547  1.5146  1.3949
 8914WAT    EPW36364   2.025   5.775   7.395  0.0366  0.4124  0.0395
 8915WAT      O36365   2.276   0.092   0.809 -0.3044  0.5601 -0.1751
 8915WAT     H136366   2.230   0.020   0.822 -0.0443  0.3264 -0.5533
 8915WAT     H236367   2.226   0.140   0.755 -0.5233  0.7126  0.1577
 8915WAT    EPW36368   2.262   0.089   0.803 -0.5157  0.0471 -0.2484
 8916WAT      O36369   0.883   6.750   7.506 -0.4811 -0.2527  0.0039
 8916WAT     H136370   0.967   6.732   7.519 -0.0492  1.3646 -0.3350
 8916WAT     H236371   0.852   6.764   7.586 -0.6196 -1.4834  0.1928
 8916WAT    EPW36372   0.891   6.749   7.520 -0.1263 -0.5339 -0.1533
 8917WAT      O36373   0.869   4.701   6.719  0.3424 -0.1412 -0.2959
 8917WAT     H136374   0.912   4.650   6.775  2.2002  0.0151 -1.4577
 8917WAT     H236375   0.795   4.720   6.760  1.1690 -0.8617  1.6510
 8917WAT    EPW36376   0.865   4.696   6.733  0.4183  0.1423 -0.7082
 8918WAT      O36377   2.210   6.291   4.708  0.1304  0.3546 -0.3669
 8918WAT     H136378   2.168   6.358   4.670 -0.4801 -0.9106 -2.0553
 8918WAT     H236379   2.282   6.328   4.740 -1.4062  2.2899  1.1465
 8918WAT    EPW36380   2.215   6.307   4.707 -0.4096 -0.0797 -0.6076
 8919WAT      O36381   3.520   2.931   5.841  0.0926 -0.3566 -0.3845
 8919WAT     H136382   3.518   2.915   5.927  1.7459 -2.0121 -0.5946
 8919WAT     H236383   3.565   3.006   5.836 -0.8002  0.2423  0.2146
 8919WAT    EPW36384   3.526   2.939   5.853 -0.2121 -0.4880 -0.2700
 8920WAT      O36385   3.903   2.442   2.430  0.0951 -0.0328 -0.2080
 8920WAT     H136386   3.912   2.363   2.392 -0.5896  0.0894 -0.6368
 8920WAT     H236387   3.824   2.438   2.467  0.5090  0.0688  0.7097
 8920WAT    EPW36388   3.893   2.430   2.430  0.4631 -0.4808  0.7423
 8921WAT      O36389   1.602   0.878   6.363  0.1297  0.4260 -0.1863
 8921WAT     H136390   1.555   0.830   6.307  1.2740  0.8545 -1.5707
 8921WAT     H236391   1.592   0.959   6.334  1.1965  0.5929 -0.1100
 8921WAT    EPW36392   1.593   0.883   6.350  0.1307  0.2256  0.2765
 8922WAT      O36393   5.644   6.056   7.395 -0.4422  0.3008 -0.0462
 8922WAT     H136394   5.677   5.999   7.452 -0.4003  1.2024  0.8607
 8922WAT     H236395   5.618   6.122   7.446 -0.5606  1.0528 -1.0665
 8922WAT    EPW36396   5.645   6.058   7.411  0.1305  0.7634  0.0509
 8923WAT      O36397   1.396   2.065   6.907  0.1804 -0.3416 -0.2313
 8923WAT     H136398   1.386   2.142   6.947  2.0072 -0.0362 -0.2755
 8923WAT     H236399   1.374   2.007   6.967 -0.1575  0.1760  0.1577
 8923WAT    EPW36400   1.391   2.068   6.922  0.2519 -0.0614  0.3306
 8924WAT      O36401   5.008   0.130   6.079 -0.0118  0.1706  0.3758
 8924WAT     H136402   5.039   0.171   6.009  0.5442 -0.5384  0.1853
 8924WAT     H236403   5.014   0.189   6.142 -0.0670  0.6623 -0.0732
 8924WAT    EPW36404   5.013   0.145   6.078  0.5712 -0.0685  0.1137
 8925WAT      O36405   5.808   0.419   2.052  0.7631 -0.0630 -0.0156
 8925WAT     H136406   5.803   0.432   2.138 -0.5305 -0.0732 -0.0645
 8925WAT     H236407   5.743   0.468   2.020  0.6354 -0.7688 -0.8858
 8925WAT    EPW36408   5.797   0.428   2.060 -0.3372  0.2014  0.0293
 8926WAT      O36409   1.938   6.225   7.559 -0.5273 -0.0850 -0.2813
 8926WAT     H136410   1.999   6.164   7.569  0.7363  1.1493 -0.0587
 8926WAT     H236411   1.871   6.195   7.605  0.4858 -0.7677  0.8204
 8926WAT    EPW36412   1.937   6.212   7.567  0.1379 -0.3517  0.3252
 8927WAT      O36413   1.724   0.444   3.549 -0.1631  0.2380 -0.3408
 8927WAT     H136414   1.699   0.360   3.544  0.5313 -0.0222  0.2463
 8927WAT     H236415   1.737   0.467   3.466 -0.2385 -0.2771 -0.4983
 8927WAT    EPW36416   1.722   0.435   3.536  0.3720 -0.4188  0.3247
 8928WAT      O36417   1.082   3.521   3.804  0.3578  0.4147 -0.7824
 8928WAT     H136418   1.020   3.532   3.864  1.1782 -0.2872  0.2238
 8928WAT     H236419   1.145   3.576   3.829 -0.0740  1.6266 -2.1765
 8928WAT    EPW36420   1.082   3.531   3.816 -0.6592 -0.2054 -0.2650
 8929WAT      O36421   6.737   1.494   7.161 -0.1285  1.0267  0.4617
 8929WAT     H136422   6.736   1.498   7.073 -1.6719  1.7877  0.4782
 8929WAT     H236423   6.778   1.568   7.184  4.1223 -1.0117  0.4394
 8929WAT    EPW36424   6.743   1.506   7.151  0.0656  0.1585 -0.1095
 8930WAT      O36425   3.425   0.347   0.118  0.5247  0.3229  0.0911
 8930WAT     H136426   3.378   0.411   0.082  1.5904  1.3596  0.4703
 8930WAT     H236427   3.499   0.347   0.071 -0.1372 -1.8524 -1.0582
 8930WAT    EPW36428   3.429   0.356   0.106 -0.2492  0.1687  0.2432
 8931WAT      O36429   4.053   0.925   5.349  0.1807 -0.1514  0.1211
 8931WAT     H136430   3.974   0.912   5.384 -0.9359  0.0869 -2.1685
 8931WAT     H236431   4.056   1.012   5.337 -0.1803 -0.3524 -1.7884
 8931WAT    EPW36432   4.042   0.936   5.353 -0.0506  0.2231  0.8862
 8932WAT      O36433   0.250   1.837   7.305 -0.4347 -0.2474 -0.1924
 8932WAT     H136434   0.247   1.836   7.392  0.6140  1.9193 -0.0721
 8932WAT     H236435   0.267   1.920   7.286 -1.6540 -0.4432 -2.5298
 8932WAT    EPW36436   0.252   1.849   7.315  0.5435  0.3842  0.1158
 8933WAT      O36437   2.417   6.427   1.108 -0.0443 -0.3787 -0.4346
 8933WAT     H136438   2.406   6.388   1.031  0.5083 -1.2663 -0.0791
 8933WAT     H236439   2.374   6.376   1.163 -0.0488 -0.0007 -0.0847
 8933WAT    EPW36440   2.409   6.414   1.105  0.1759  0.3668  0.0754
 8934WAT      O36441   0.817   4.035   0.388  0.0214 -0.1449  0.0494
 8934WAT     H136442   0.759   4.029   0.453 -0.7206 -0.6623 -0.6451
 8934WAT     H236443   0.810   4.118   0.362 -0.8617 -0.3454 -0.4144
 8934WAT    EPW36444   0.807   4.047   0.394  0.4230  0.0150  0.5112
 8935WAT      O36445   4.033   5.668   4.433 -0.5919  0.1810  0.0232
 8935WAT     H136446   4.043   5.601   4.377 -1.3765  0.7940 -0.8715
 8935WAT     H236447   4.115   5.692   4.449 -0.3397  0.6184 -1.6585
 8935WAT    EPW36448   4.047   5.662   4.427 -0.1544  0.0626  0.3632
 8936WAT      O36449   6.134   7.013   1.666  0.2656  0.1061  0.0899
 8936WAT     H136450   6.099   6.954   1.611  1.8373 -0.7973 -0.0080
 8936WAT     H236451   6.074   7.076   1.669 -1.3638 -1.3711 -0.0251
 8936WAT    EPW36452   6.120   7.014   1.658  0.1996 -0.2457 -0.3245
 8937WAT      O36453   2.475   1.528   7.398 -0.0746 -0.0105  0.1063
 8937WAT     H136454   2.508   1.466   7.346 -2.1125 -0.4114 -0.8140
 8937WAT     H236455   2.431   1.483   7.458 -1.7770  0.4687 -0.7078
 8937WAT    EPW36456   2.473   1.512   7.399 -0.1980  0.6261 -0.5629
 8938WAT      O36457   0.333   4.891   4.250  0.2915 -0.2901 -0.6557
 8938WAT     H136458   0.361   4.821   4.207  0.0746 -0.0333 -1.2301
 8938WAT     H236459   0.299   4.859   4.323  1.5499 -0.6557 -0.2106
 8938WAT    EPW36460   0.332   4.876   4.255 -0.4030  0.3424 -0.2168
 8939WAT      O36461   7.538   4.001   5.879  0.1305  0.0710 -0.4346
 8939WAT     H136462   7.619   4.029   5.864 -0.1288  0.9817 -0.1503
 8939WAT     H236463   7.528   3.936   5.821  1.5751 -1.0584  0.5210
 8939WAT    EPW36464   7.548   3.995   5.868  0.2750 -0.0694  0.7182
 8940WAT      O36465   7.368   6.210   6.044  0.2146  0.3565  0.3224
 8940WAT     H136466   7.400   6.290   6.028  1.0989  0.0992  0.7613
 8940WAT     H236467   7.355   6.177   5.964 -1.2630  1.3523  0.1229
 8940WAT    EPW36468   7.371   6.217   6.030 -0.0459 -0.9076 -0.3818
 8941WAT      O36469   7.176   5.220   6.263 -0.6353  0.8239 -0.3894
 8941WAT     H136470   7.190   5.224   6.177  2.5239 -1.1678 -0.1358
 8941WAT     H236471   7.165   5.135   6.278  0.3028  0.9515  1.2748
 8941WAT    EPW36472   7.177   5.208   6.253  0.5294  0.8848  0.7263
 8942WAT      O36473   1.195   4.263   0.985  0.0883  0.6158  0.5741
 8942WAT     H136474   1.203   4.329   0.928 -1.8893  0.3936 -0.0397
 8942WAT     H236475   1.234   4.196   0.945  0.6985  0.9989  0.5050
 8942WAT    EPW36476   1.202   4.263   0.970  0.2089  0.3981  0.1632
 8943WAT      O36477   4.366   1.135   4.279  0.0117 -0.3613  0.1893
 8943WAT     H136478   4.356   1.086   4.351  0.6037 -2.0905 -0.8222
 8943WAT     H236479   4.340   1.082   4.215  3.0543 -0.3586 -1.2421
 8943WAT    EPW36480   4.361   1.120   4.280 -0.0638 -0.0133 -0.1384
 8944WAT      O36481   5.277   0.380   5.799  0.0631  0.3613  0.1266
 8944WAT     H136482   5.283   0.300   5.766 -0.2059 -0.5945  2.2367
 8944WAT     H236483   5.353   0.390   5.842  0.0987  1.2469 -0.1328
 8944WAT    EPW36484   5.289   0.370   5.801 -0.0735  0.1798 -0.8714
 8945WAT      O36485   6.746   5.794   5.513 -0.2794  0.2340  0.4544
 8945WAT     H136486   6.762   5.708   5.511  2.5296  0.6397  0.8935
 8945WAT     H236487   6.670   5.800   5.556 -1.8157 -2.0831 -1.6517
 8945WAT    EPW36488   6.737   5.782   5.519  0.2462  0.3602  0.6714
 8946WAT      O36489   4.859   5.574   7.495 -0.1488  0.8671  0.5043
 8946WAT     H136490   4.903   5.592   7.569  0.8394  1.2577 -0.1458
 8946WAT     H236491   4.776   5.568   7.521  0.1320  1.3916  1.5855
 8946WAT    EPW36492   4.854   5.576   7.510 -0.1438 -0.1041 -0.0903
 8947WAT      O36493   2.447   5.873   7.466  0.5390  0.0728 -0.8785
 8947WAT     H136494   2.397   5.936   7.432  1.1334  1.3256  0.4356
 8947WAT     H236495   2.512   5.866   7.408 -0.0512 -0.0741 -1.5430
 8947WAT    EPW36496   2.449   5.881   7.452  0.2104 -0.1629 -0.5858
 8948WAT      O36497   4.246   5.990   6.011  0.2475 -0.3710  0.8485
 8948WAT     H136498   4.320   5.989   6.056  0.7127 -1.9628  0.0994
 8948WAT     H236499   4.271   6.006   5.929 -0.0494 -2.2161  0.3550
 8948WAT    EPW36500   4.260   5.992   6.006 -0.0500 -0.2686  0.0608
 8949WAT      O36501   5.559   1.615   1.843 -0.0177  0.3100  0.5029
 8949WAT     H136502   5.508   1.553   1.809 -0.1475  0.5263  0.3069
 8949WAT     H236503   5.616   1.631   1.780  0.4625 -0.1207  0.8182
 8949WAT    EPW36504   5.560   1.608   1.829  0.2088  0.2103  0.2244
 8950WAT      O36505   4.713   3.821   5.953 -0.2138  0.0451 -0.1865
 8950WAT     H136506   4.784   3.865   5.927  1.5678 -2.4328  0.1688
 8950WAT     H236507   4.745   3.747   5.985 -3.0410 -1.6703 -0.9615
 8950WAT    EPW36508   4.728   3.817   5.954 -0.0874  0.4291 -0.1804
 8951WAT      O36509   6.662   3.323   7.417 -0.1277 -0.0176  0.4565
 8951WAT     H136510   6.599   3.265   7.401 -1.7230  1.3658  1.2825
 8951WAT     H236511   6.618   3.398   7.425  1.7191  1.1140  0.5106
 8951WAT    EPW36512   6.646   3.326   7.416 -0.5628  0.2941  0.1049
 8952WAT      O36513   6.920   7.295   6.453 -0.4926 -0.0551  0.0680
 8952WAT     H136514   6.860   7.341   6.410  0.6375  0.3003 -1.1858
 8952WAT     H236515   6.946   7.235   6.396  0.8417  0.2439  0.3179
 8952WAT    EPW36516   6.915   7.293   6.438 -0.0549 -0.5476 -0.6807
 8953WAT      O36517   1.110   0.369   6.485 -0.0448  0.6261  0.0173
 8953WAT     H136518   1.034   0.367   6.443 -0.6056 -0.3746  1.0061
 8953WAT     H236519   1.131   0.284   6.494  0.3407  0.8182  1.2049
 8953WAT    EPW36520   1.102   0.356   6.480  0.0524 -0.2640 -0.0658
 8954WAT      O36521   1.994   7.154   5.144 -0.0456  0.0243 -0.0053
 8954WAT     H136522   2.036   7.229   5.160 -0.3507  0.3578 -0.6964
 8954WAT     H236523   2.047   7.093   5.177  0.9723  0.4399 -0.8060
 8954WAT    EPW36524   2.008   7.156   5.151  0.3915 -0.1058  0.4027
 8955WAT      O36525   3.178   3.047   2.242 -0.5304  0.5095 -0.0288
 8955WAT     H136526   3.154   3.036   2.159 -0.3327 -0.0813 -0.0061
 8955WAT     H236527   3.104   3.073   2.281 -1.2696 -1.6623  0.1178
 8955WAT    EPW36528   3.163   3.049   2.236  0.4238  0.4080  0.4204
 8956WAT      O36529   5.728   3.704   1.102 -0.1576  0.1947  0.0908
 8956WAT     H136530   5.732   3.662   1.026 -0.8132 -1.6178  1.0027
 8956WAT     H236531   5.795   3.759   1.098 -0.1715  0.1496 -1.7770
 8956WAT    EPW36532   5.738   3.706   1.090  0.4778 -0.2215  0.2091
 8957WAT      O36533   1.763   5.713   7.376  0.2497  0.1407  0.1449
 8957WAT     H136534   1.783   5.640   7.332  0.2194  0.5987 -0.6615
 8957WAT     H236535   1.728   5.684   7.450  2.0431 -0.6722  0.7272
 8957WAT    EPW36536   1.761   5.698   7.380  0.1270  0.0873 -0.1803
 8958WAT      O36537   5.593   2.979   3.465 -0.0644 -0.1983  0.0023
 8958WAT     H136538   5.578   2.926   3.532 -0.4019 -1.6426 -1.1694
 8958WAT     H236539   5.656   2.940   3.420 -0.7684  0.0308 -1.2428
 8958WAT    EPW36540   5.600   2.966   3.468  0.3935  0.7688  0.5688
 8959WAT      O36541   4.048   0.574   1.771 -0.2523  0.0134  0.7030
 8959WAT     H136542   4.076   0.631   1.832 -1.2972 -0.4390  1.6429
 8959WAT     H236543   3.987   0.619   1.728 -2.4209 -0.8727  2.6314
 8959WAT    EPW36544   4.043   0.589   1.774 -0.0434  0.1960 -0.3757
 8960WAT      O36545   6.299   3.063   3.727 -0.1208  0.3211 -0.4248
 8960WAT     H136546   6.277   2.978   3.722  0.0005  0.2537  0.1275
 8960WAT     H236547   6.225   3.101   3.752  0.1242  0.2194  0.4874
 8960WAT    EPW36548   6.285   3.056   3.730  0.2861 -0.2096 -0.9751
 8961WAT      O36549   0.004   4.592   4.971 -0.1586  0.0604 -0.4450
 8961WAT     H136550   0.004   4.548   4.896 -2.2079 -1.6500  0.4561
 8961WAT     H236551  -0.009   4.675   4.946 -2.2719 -0.6534 -1.9533
 8961WAT    EPW36552   0.002   4.598   4.956 -0.0183  0.0749  0.4628
 8962WAT      O36553   0.670   4.016   6.697 -0.4124 -0.2884 -0.1409
 8962WAT     H136554   0.728   3.976   6.645 -0.2637 -0.8742  0.4585
 8962WAT     H236555   0.595   3.976   6.678 -0.2327 -1.0042  0.5848
 8962WAT    EPW36556   0.668   4.004   6.686 -0.1903  0.1454 -0.2309
 8963WAT      O36557   6.911   5.535   2.355 -0.0494 -0.4236  0.2041
 8963WAT     H136558   6.855   5.522   2.289 -1.0157 -0.3426  0.9831
 8963WAT     H236559   6.989   5.537   2.316 -0.5622 -0.8325 -0.8740
 8963WAT    EPW36560   6.914   5.534   2.340 -0.1099  0.1659  0.2418
 8964WAT      O36561   1.237   6.045   6.309 -0.3524 -0.1309  0.9919
 8964WAT     H136562   1.180   6.094   6.264 -0.7681 -1.7761 -0.3677
 8964WAT     H236563   1.250   5.976   6.257  1.3118 -0.7856  2.2031
 8964WAT    EPW36564   1.231   6.042   6.295 -0.7295 -0.3374  0.2141
 8965WAT      O36565   1.294   4.150   2.437  0.3767  0.1653  0.2426
 8965WAT     H136566   1.217   4.109   2.430  0.1808  0.4715  0.5472
 8965WAT     H236567   1.274   4.223   2.481  0.5936  0.9152 -0.8499
 8965WAT    EPW36568   1.280   4.155   2.443  0.3566  0.5151  0.3595
 8966WAT      O36569   2.649   2.362   3.193  0.2279 -0.1872 -0.0662
 8966WAT     H136570   2.575   2.348   3.237 -0.3372 -0.2180 -0.9863
 8966WAT     H236571   2.689   2.424   3.239 -0.8437  0.5395 -0.0672
 8966WAT    EPW36572   2.644   2.369   3.206  0.2200  0.3003  0.0607
 8967WAT      O36573   0.482   4.627   2.144 -0.0803  0.2032  0.0502
 8967WAT     H136574   0.528   4.565   2.186 -0.7568  0.0354  0.5708
 8967WAT     H236575   0.516   4.702   2.175  1.4058  0.1442 -1.3066
 8967WAT    EPW36576   0.494   4.629   2.155 -0.0312 -0.4342 -0.0806
 8968WAT      O36577   4.879   7.207   5.566  0.0592  0.0671  0.1292
 8968WAT     H136578   4.948   7.220   5.514  0.6204  0.0423  0.8581
 8968WAT     H236579   4.910   7.223   5.646 -0.1687 -2.1877  0.7175
 8968WAT    EPW36580   4.894   7.212   5.570  0.3222  0.1507  0.7055
 8969WAT      O36581   5.067   1.297   5.484  0.4847  0.2819  0.5727
 8969WAT     H136582   5.106   1.323   5.557  1.4474 -0.0194  0.1836
 8969WAT     H236583   5.134   1.276   5.431 -0.1910 -1.1721  0.2246
 8969WAT    EPW36584   5.083   1.298   5.487  0.7234 -0.1310 -0.3800
 8970WAT      O36585   5.271   1.801   7.250 -0.7067 -0.2153  0.0671
 8970WAT     H136586   5.242   1.801   7.167 -1.1955 -1.6270  0.2161
 8970WAT     H236587   5.222   1.740   7.289 -0.0165 -0.0468  1.2470
 8970WAT    EPW36588   5.259   1.792   7.244  0.2011  0.0398  0.1177
 8971WAT      O36589   2.238   4.412   5.580  0.1553 -0.2700 -0.1609
 8971WAT     H136590   2.299   4.353   5.601 -0.0449 -0.2617  0.4655
 8971WAT     H236591   2.265   4.442   5.502  0.6235 -0.6958 -0.1732
 8971WAT    EPW36592   2.251   4.407   5.571 -0.0776  0.4597 -0.7251
 8972WAT      O36593   4.141   0.370   3.660  0.4648 -0.6826  0.2015
 8972WAT     H136594   4.103   0.313   3.714  0.7733 -0.0674  1.0900
 8972WAT     H236595   4.082   0.435   3.654  0.3653 -0.8153 -0.3325
 8972WAT    EPW36596   4.126   0.371   3.667 -0.2252 -0.3240  0.4029
 8973WAT      O36597   7.638   0.750   2.817 -0.5655 -0.3405  0.1891
 8973WAT     H136598   7.657   0.731   2.900  0.5684  3.5941  1.0278
 8973WAT     H236599   7.559   0.787   2.822 -0.8294 -0.7396 -0.6689
 8973WAT    EPW36600   7.629   0.752   2.830 -0.0414  0.2688  0.0728
 8974WAT      O36601   0.265   0.030   4.051  0.1650 -0.4447  0.8085
 8974WAT     H136602   0.180   0.025   4.034 -0.0660 -1.2208  2.0274
 8974WAT     H236603   0.289   0.106   4.016 -0.9446 -0.3936  0.1210
 8974WAT    EPW36604   0.256   0.041   4.043  0.2637  0.6791 -0.1002
 8975WAT      O36605   2.552   6.302   4.054  0.0993  0.3557  0.8978
 8975WAT     H136606   2.484   6.248   4.064 -1.5733  2.3871  1.1536
 8975WAT     H236607   2.558   6.311   3.968 -2.5039  2.9865  0.8096
 8975WAT    EPW36608   2.543   6.296   4.043  0.7902 -0.2411  0.2612
 8976WAT      O36609  -0.005   6.023   6.371 -0.1069 -0.0055  0.0103
 8976WAT     H136610   0.016   5.978   6.443 -0.2324  0.9050  0.6257
 8976WAT     H236611  -0.005   6.106   6.397  0.7708  0.4358 -1.2595
 8976WAT    EPW36612  -0.002   6.029   6.385  0.5397  0.5879 -0.6025
 8977WAT      O36613   6.658   4.001   1.093  0.2644  0.0444  0.2419
 8977WAT     H136614   6.708   4.012   1.164  0.2712  3.0495 -0.0895
 8977WAT     H236615   6.715   4.006   1.027 -0.1494  1.4208 -0.0571
 8977WAT    EPW36616   6.674   4.004   1.093 -0.9885  0.1149  0.5444
 8978WAT      O36617   3.482   6.317   2.907  0.0876 -0.2005  0.1143
 8978WAT     H136618   3.444   6.304   2.984  0.1833 -1.5714 -0.0537
 8978WAT     H236619   3.453   6.396   2.883 -1.2032 -0.4443  0.8210
 8978WAT    EPW36620   3.472   6.327   2.915  0.0289 -0.0133 -0.4635
 8979WAT      O36621   0.692   3.056   2.549 -0.3184 -0.4205 -0.1101
 8979WAT     H136622   0.738   3.031   2.480 -1.4738 -0.7644 -0.7833
 8979WAT     H236623   0.680   3.141   2.535 -0.2309 -0.4135 -0.1433
 8979WAT    EPW36624   0.697   3.065   2.537 -0.5039 -0.2714 -0.1613
 8980WAT      O36625   5.178   4.838   5.565  0.2567  0.6408 -0.3708
 8980WAT     H136626   5.150   4.847   5.647 -1.2785 -2.2213 -0.4461
 8980WAT     H236627   5.259   4.870   5.567  1.4703 -2.0485  3.1118
 8980WAT    EPW36628   5.186   4.844   5.577 -0.3063  0.3952 -0.0741
 8981WAT      O36629   0.908   4.599   6.174 -0.2451  0.2888 -0.5809
 8981WAT     H136630   0.908   4.592   6.261  0.0061  0.0803 -0.5974
 8981WAT     H236631   0.830   4.568   6.152  0.3934 -1.4575 -0.5652
 8981WAT    EPW36632   0.896   4.594   6.184 -0.3914 -0.2632  0.0188
 8982WAT      O36633   4.399   1.154   1.120 -0.3450  0.1965 -0.1564
 8982WAT     H136634   4.462   1.134   1.063  0.4018  0.8110  0.4312
 8982WAT     H236635   4.363   1.226   1.086  0.0542  0.5224  0.0949
 8982WAT    EPW36636   4.403   1.162   1.106 -0.6401 -0.4462 -0.3893
 8983WAT      O36637   1.934   6.442   3.882 -0.0927  0.3964  0.1990
 8983WAT     H136638   1.906   6.439   3.964 -0.3477 -0.9842  0.0791
 8983WAT     H236639   1.895   6.374   3.844  0.9029  0.3344 -0.7799
 8983WAT    EPW36640   1.924   6.431   3.888 -0.5807 -0.5325  0.4031
 8984WAT      O36641   1.564   4.138   1.708 -0.6164 -0.2740  0.1860
 8984WAT     H136642   1.590   4.161   1.788 -0.9290 -1.1253  0.5463
 8984WAT     H236643   1.566   4.051   1.710 -2.5367 -0.3720 -0.0715
 8984WAT    EPW36644   1.568   4.129   1.720  0.0014 -0.6979  0.3079
 8985WAT      O36645   1.926   3.539   5.406 -0.2691 -0.2064 -0.3252
 8985WAT     H136646   2.003   3.539   5.364 -0.0862 -0.6875  0.0060
 8985WAT     H236647   1.925   3.618   5.445  0.7432 -0.7466  0.8834
 8985WAT    EPW36648   1.937   3.551   5.406 -0.6702  0.4430 -0.3017
 8986WAT      O36649   3.578   1.464   4.305  0.2176 -0.8022 -0.2981
 8986WAT     H136650   3.623   1.424   4.368 -0.2476 -1.0333 -0.1092
 8986WAT     H236651   3.513   1.504   4.348  1.0698  0.7599 -0.4000
 8986WAT    EPW36652   3.575   1.464   4.321 -0.4262  0.1787 -0.0967
 8987WAT      O36653   3.219   1.351   5.154 -0.1624 -0.0763 -0.0172
 8987WAT     H136654   3.137   1.378   5.149 -0.4350 -0.9139 -0.2900
 8987WAT     H236655   3.255   1.380   5.080 -0.3928 -0.2754 -0.2097
 8987WAT    EPW36656   3.212   1.359   5.143 -0.4755 -0.2728  0.1022
 8988WAT      O36657   6.868   0.001   6.261 -0.2675 -0.0406 -0.3187
 8988WAT     H136658   6.897   0.049   6.328 -0.9240 -1.9388  1.4317
 8988WAT     H236659   6.781   0.007   6.268 -0.3611  0.5581 -1.6850
 8988WAT    EPW36660   6.859   0.009   6.272  0.5143 -0.4228  0.7354
 8989WAT      O36661   6.224   6.330   6.223 -0.1299  0.3023  0.4343
 8989WAT     H136662   6.301   6.363   6.245 -0.2414  1.4006 -0.7228
 8989WAT     H236663   6.191   6.389   6.168 -1.7333 -0.2167  0.7832
 8989WAT    EPW36664   6.230   6.344   6.218 -0.8671 -0.2887  0.3403
 8990WAT      O36665   0.911   2.043   3.911  0.3298 -0.2094 -0.1133
 8990WAT     H136666   0.918   2.109   3.854  1.1758 -0.6487 -0.5445
 8990WAT     H236667   0.954   1.977   3.871  1.5026 -0.3535  1.2842
 8990WAT    EPW36668   0.919   2.043   3.897 -0.2904 -1.0753 -0.3231
 8991WAT      O36669   2.512   0.199   6.608  0.0314  0.3801 -0.0336
 8991WAT     H136670   2.521   0.277   6.647  0.4439 -0.3356  1.3937
 8991WAT     H236671   2.576   0.199   6.548  1.1623  0.4944  1.1256
 8991WAT    EPW36672   2.523   0.211   6.605  0.3564 -0.1410  0.1147
 8992WAT      O36673   3.859   0.813   1.204  0.1296  0.0072  0.1763
 8992WAT     H136674   3.887   0.843   1.127 -0.3464  1.0381  0.3932
 8992WAT     H236675   3.773   0.803   1.193  0.3242 -1.7326 -0.0235
 8992WAT    EPW36676   3.850   0.816   1.191 -0.4360  0.6899 -0.3998
 8993WAT      O36677   5.369   2.465   4.620  0.3563  0.7666 -0.1566
 8993WAT     H136678   5.433   2.489   4.674 -0.0526  0.8121  0.3151
 8993WAT     H236679   5.297   2.494   4.660 -0.3291 -2.1868  1.0388
 8993WAT    EPW36680   5.368   2.473   4.634  0.2248  0.6915 -0.2047
 8994WAT      O36681   2.927   6.367   2.089 -0.0283  0.0482  0.4328
 8994WAT     H136682   2.988   6.354   2.028  0.8767  0.0173  1.3250
 8994WAT     H236683   2.893   6.445   2.068 -0.3087 -0.3282 -0.5736
 8994WAT    EPW36684   2.931   6.377   2.077 -0.0181  0.2096 -0.6359
 8995WAT      O36685   4.463   3.155   0.442  0.4768 -0.0987  0.2932
 8995WAT     H136686   4.439   3.076   0.471 -3.3313  0.1576 -1.4795
 8995WAT     H236687   4.504   3.138   0.366 -2.9425 -0.5636 -1.6722
 8995WAT    EPW36688   4.465   3.141   0.435  0.9002  0.1435  0.3239
 8996WAT      O36689   4.751   3.344   1.489 -0.2639 -0.0167  0.7342
 8996WAT     H136690   4.817   3.337   1.546  0.1362  1.4022  0.4879
 8996WAT     H236691   4.740   3.262   1.460  2.1669 -0.1603 -0.0490
 8996WAT    EPW36692   4.759   3.331   1.493  0.1041 -0.1531  0.4434
 8997WAT      O36693   6.846   0.941   1.739  0.0334  0.3673 -0.0617
 8997WAT     H136694   6.847   0.966   1.822  0.6508 -2.1906  0.7941
 8997WAT     H236695   6.800   0.867   1.740 -1.5454  1.2142 -2.3508
 8997WAT    EPW36696   6.839   0.934   1.751 -0.4263  0.0889 -1.1104
 8998WAT      O36697   7.004   3.799   6.638  0.6531 -0.4148  0.4255
 8998WAT     H136698   6.924   3.772   6.661  0.3074 -0.5669 -0.8495
 8998WAT     H236699   7.054   3.730   6.656  0.2173 -0.9327 -0.2856
 8998WAT    EPW36700   7.000   3.785   6.644 -0.0456  0.3536  0.2297
 8999WAT      O36701   7.340   0.154   5.175  0.0573 -0.1045 -0.5929
 8999WAT     H136702   7.375   0.102   5.235 -0.1309 -0.8072 -1.0688
 8999WAT     H236703   7.401   0.159   5.113 -0.6327 -1.3149 -1.4137
 8999WAT    EPW36704   7.354   0.147   5.175 -0.5982  0.6481  0.2059
 9000WAT      O36705   4.798   5.975   1.684 -0.3929 -0.0730 -0.7701
 9000WAT     H136706   4.881   5.988   1.662  0.3587  1.4179  2.4059
 9000WAT     H236707   4.761   6.053   1.675 -0.9072 -0.2319 -0.1652
 9000WAT    EPW36708   4.805   5.988   1.679  0.2347  0.4638 -0.8020
 9001WAT      O36709   4.739   5.961   7.480  0.2447 -0.0965 -0.1132
 9001WAT     H136710   4.736   5.993   7.399  0.2917 -0.8617 -0.4217
 9001WAT     H236711   4.770   5.880   7.469  0.5859 -0.0880  0.7034
 9001WAT    EPW36712   4.743   5.954   7.466  0.1285 -0.7127  1.0134
 9002WAT      O36713   1.114   6.615   5.133 -0.0412 -0.7759 -0.3657
 9002WAT     H136714   1.045   6.659   5.103  1.0247  0.8492 -0.5292
 9002WAT     H236715   1.111   6.629   5.219  0.4550 -0.1488 -0.4494
 9002WAT    EPW36716   1.103   6.623   5.141  0.3126  0.3289 -0.4652
 9003WAT      O36717   2.486   7.026   1.089 -0.5223 -0.0599 -0.1549
 9003WAT     H136718   2.518   6.974   1.027 -0.0011 -1.5141  1.2667
 9003WAT     H236719   2.468   7.100   1.046  2.0855 -0.1244 -1.5862
 9003WAT    EPW36720   2.488   7.029   1.073 -0.3269  0.5528  0.0766
 9004WAT      O36721   2.696   7.020   3.364 -0.0357  0.1378 -0.1704
 9004WAT     H136722   2.671   7.066   3.434  0.2904  1.3100 -0.7933
 9004WAT     H236723   2.783   7.020   3.369 -0.0280 -0.2549 -0.2736
 9004WAT    EPW36724   2.705   7.027   3.375  0.0799  0.0869  0.6000
 9005WAT      O36725   0.186   6.442   3.127 -0.1490  0.1885  0.4364
 9005WAT     H136726   0.152   6.506   3.175 -1.7348  0.6353 -1.1715
 9005WAT     H236727   0.208   6.482   3.052 -0.4077 -0.9872 -0.2906
 9005WAT    EPW36728   0.184   6.457   3.123  0.4124 -0.6140  0.2618
 9006WAT      O36729   0.813   5.213   5.582  0.3906  0.2436  0.1246
 9006WAT     H136730   0.840   5.263   5.649  0.2078 -0.5656  0.8231
 9006WAT     H236731   0.745   5.170   5.615  0.3206 -0.2023 -0.5810
 9006WAT    EPW36732   0.807   5.214   5.597  0.5483  0.0858  0.4620
 9007WAT      O36733   5.640   6.228   1.629 -0.6325 -0.0449 -0.0184
 9007WAT     H136734   5.687   6.249   1.559 -0.8118  2.3544  0.5020
 9007WAT     H236735   5.579   6.173   1.597  1.5318 -2.0715 -0.9475
 9007WAT    EPW36736   5.638   6.223   1.614 -0.5386  0.4397 -0.1591
 9008WAT      O36737   4.162   7.053   5.886 -0.2019 -0.1358  0.0409
 9008WAT     H136738   4.159   7.029   5.970 -1.1887 -1.1130 -0.2539
 9008WAT     H236739   4.094   7.108   5.878  0.3579  0.5668  0.0544
 9008WAT    EPW36740   4.151   7.058   5.897  0.3463 -0.0949 -0.1287
 9009WAT      O36741   5.561   6.721   1.113  0.1648 -0.1770  0.0285
 9009WAT     H136742   5.621   6.782   1.096  0.7564 -1.0418 -1.1020
 9009WAT     H236743   5.597   6.647   1.084 -0.8325 -0.9687  0.7011
 9009WAT    EPW36744   5.575   6.719   1.106 -0.5412  0.2166 -0.3832
 9010WAT      O36745   5.457   5.654   1.027 -0.4253 -0.2827 -0.2722
 9010WAT     H136746   5.527   5.619   1.066  1.4107  2.0251 -1.3169
 9010WAT     H236747   5.424   5.707   1.088 -0.4931 -0.3702 -0.2320
 9010WAT    EPW36748   5.462   5.657   1.042  0.6516 -0.6040 -0.1033
 9011WAT      O36749   5.620   7.565   6.062 -0.6305 -0.2636 -0.2631
 9011WAT     H136750   5.704   7.549   6.047 -0.2022 -1.8333  2.9715
 9011WAT     H236751   5.582   7.487   6.054 -1.7895  0.3668 -1.3540
 9011WAT    EPW36752   5.627   7.551   6.059 -0.6043  0.3109  0.3481
 9012WAT      O36753   1.659   3.606   1.191 -0.2407 -0.4994  0.0996
 9012WAT     H136754   1.655   3.534   1.240 -0.6943 -0.0103  0.8025
 9012WAT     H236755   1.615   3.585   1.119  0.6005 -1.2938 -0.2037
 9012WAT    EPW36756   1.652   3.593   1.188  0.4531 -0.4627  0.6122
 9013WAT      O36757   2.162   0.507   0.704 -0.6226 -0.3102  0.3022
 9013WAT     H136758   2.173   0.427   0.672  1.1472 -0.2746  0.6843
 9013WAT     H236759   2.080   0.507   0.734 -1.0558 -1.5655 -0.7948
 9013WAT    EPW36760   2.152   0.495   0.704 -0.4070 -0.4199  0.3211
 9014WAT      O36761   5.526   0.308   4.350 -0.0849  0.0598  0.5729
 9014WAT     H136762   5.449   0.267   4.347 -0.3564  0.5735 -2.4201
 9014WAT     H236763   5.504   0.393   4.349  0.4339  0.2358 -2.0971
 9014WAT    EPW36764   5.511   0.315   4.349 -0.0754 -0.1845 -0.5208
 9015WAT      O36765   7.284   2.972   4.477 -0.1489 -0.0772  0.6739
 9015WAT     H136766   7.227   3.035   4.497  0.5087  0.3376  1.2940
 9015WAT     H236767   7.269   2.911   4.538  0.0897  0.0512  0.8640
 9015WAT    EPW36768   7.273   2.972   4.489  0.2889  0.1562 -0.4568
 9016WAT      O36769   2.601   5.752   5.312  0.2765 -0.1895 -0.1560
 9016WAT     H136770   2.607   5.807   5.244 -0.0250 -0.3845 -0.3485
 9016WAT     H236771   2.659   5.691   5.294  0.8213  0.2147  0.2057
 9016WAT    EPW36772   2.610   5.751   5.299  0.2343  0.3175 -0.1065
 9017WAT      O36773   2.557   4.572   0.058 -0.3684  0.0496 -0.1476
 9017WAT     H136774   2.605   4.623   0.110 -0.5436  0.1883 -0.1185
 9017WAT     H236775   2.531   4.507   0.111 -0.7869  0.3447  0.0151
 9017WAT    EPW36776   2.560   4.570   0.074 -0.2440  0.4706  0.3346
 9018WAT      O36777   6.701   2.203   0.929  0.8212 -0.0127  0.1372
 9018WAT     H136778   6.624   2.173   0.955 -0.0669  0.5985 -1.6394
 9018WAT     H236779   6.739   2.231   1.002 -0.7931  0.0225  0.9854
 9018WAT    EPW36780   6.695   2.202   0.944 -0.3010 -0.5732  0.1076
 9019WAT      O36781   4.370   7.237   4.108 -0.0867  0.0570 -0.2728
 9019WAT     H136782   4.358   7.216   4.024  1.0448  0.0769 -0.4562
 9019WAT     H236783   4.416   7.170   4.139  0.8196  0.7538 -0.0674
 9019WAT    EPW36784   4.375   7.224   4.100 -0.3813  0.0310 -1.1281
 9020WAT      O36785   1.032   4.062   2.350 -0.3369 -0.0225  0.2791
 9020WAT     H136786   1.015   4.147   2.360  0.9221  0.3968 -0.7721
 9020WAT     H236787   1.050   4.055   2.264 -0.6262 -1.3940  0.3107
 9020WAT    EPW36788   1.032   4.074   2.338  0.1021  0.6467  0.1359
 9021WAT      O36789   5.140   6.942   0.510 -0.3232  0.9585 -0.3653
 9021WAT     H136790   5.215   6.956   0.553 -0.8917 -0.3283  1.1615
 9021WAT     H236791   5.145   6.858   0.489 -1.7320  0.6068  0.6084
 9021WAT    EPW36792   5.152   6.932   0.513 -0.6407 -0.1862  0.3017
 9022WAT      O36793   6.071   5.494   0.931  0.4150  0.1765 -0.0155
 9022WAT     H136794   6.019   5.425   0.943 -0.3304  0.5501 -0.9475
 9022WAT     H236795   6.126   5.468   0.869  0.4257  0.2626 -0.0421
 9022WAT    EPW36796   6.072   5.480   0.924  0.4377 -0.6927  0.3511
 9023WAT      O36797   1.382   6.978   7.479  0.2115 -0.0984  0.0478
 9023WAT     H136798   1.317   6.991   7.422  0.8339  0.1638 -0.6340
 9023WAT     H236799   1.404   7.059   7.504  0.2139 -0.1886  0.3362
 9023WAT    EPW36800   1.376   6.992   7.474  1.0066 -0.4681  0.3721
 9024WAT      O36801   7.005   0.354   1.280  0.1036  0.3619  0.0152
 9024WAT     H136802   6.979   0.280   1.318 -0.4982 -0.5261 -1.9514
 9024WAT     H236803   7.087   0.337   1.257  0.5770  1.0178  1.1659
 9024WAT    EPW36804   7.013   0.341   1.282 -0.7103  0.0313 -0.4162
 9025WAT      O36805   4.901   6.515   0.404  0.2831  0.0187 -0.9591
 9025WAT     H136806   4.883   6.442   0.360 -0.4826 -1.4896  1.6829
 9025WAT     H236807   4.824   6.555   0.408  0.3614  0.1741 -0.9938
 9025WAT    EPW36808   4.887   6.510   0.398  0.2403 -0.0465  0.8724
 9026WAT      O36809   6.861   2.530   4.529 -0.2307 -0.2328 -0.5758
 9026WAT     H136810   6.812   2.585   4.576  1.2590  1.7779 -1.2057
 9026WAT     H236811   6.896   2.477   4.588  1.3935  2.0588  0.6701
 9026WAT    EPW36812   6.859   2.531   4.545  0.6512 -0.3282 -0.1962
 9027WAT      O36813   3.092   2.623   0.065  0.3022 -0.6033 -0.1160
 9027WAT     H136814   3.170   2.585   0.070  0.3898 -0.9595 -2.7048
 9027WAT     H236815   3.073   2.620  -0.020 -2.9642 -1.3917  0.5021
 9027WAT    EPW36816   3.101   2.617   0.053  0.0588 -0.5921 -0.6971
 9028WAT      O36817   6.764   0.315   0.126 -0.2152 -0.8609 -0.0258
 9028WAT     H136818   6.706   0.338   0.187  0.4993 -0.0605  0.3700
 9028WAT     H236819   6.839   0.310   0.170  0.7978  1.9777 -1.1532
 9028WAT    EPW36820   6.766   0.318   0.141  0.2705 -0.1934  1.0098
 9029WAT      O36821   1.380   5.096   7.051 -0.2019 -1.0483 -0.2774
 9029WAT     H136822   1.325   5.111   7.117  1.1867 -0.5187  0.8039
 9029WAT     H236823   1.365   5.163   6.996  0.9771  0.4733  1.1516
 9029WAT    EPW36824   1.370   5.108   7.053  0.0328 -0.5238 -0.0022
 9030WAT      O36825   6.855   5.953   7.504 -0.2088 -0.4991 -0.3160
 9030WAT     H136826   6.941   5.943   7.510 -0.3015 -2.5624 -1.5577
 9030WAT     H236827   6.845   6.027   7.458  0.8416  0.0913  0.3697
 9030WAT    EPW36828   6.866   5.963   7.498  0.5613  0.0293 -0.0281
 9031WAT      O36829   0.668   3.132   1.094  0.0849  0.1403 -0.3736
 9031WAT     H136830   0.735   3.137   1.150 -0.3666 -0.0398  0.2008
 9031WAT     H236831   0.611   3.189   1.127  0.2250  0.8219 -1.2534
 9031WAT    EPW36832   0.670   3.141   1.107  0.4156  0.0357  0.2452
 9032WAT      O36833   4.657   1.463   2.661  0.3095  0.1436 -0.4359
 9032WAT     H136834   4.639   1.507   2.588  1.6299  0.1927 -0.7623
 9032WAT     H236835   4.610   1.504   2.722  0.2017  0.9323 -1.0298
 9032WAT    EPW36836   4.648   1.476   2.659 -0.2779  0.2369 -0.4323
 9033WAT      O36837   3.752   5.568   6.212  0.6888 -0.3485  0.3067
 9033WAT     H136838   3.745   5.507   6.150  1.0993 -0.6805  0.5796
 9033WAT     H236839   3.820   5.616   6.185  1.6685 -1.2307  1.1024
 9033WAT    EPW36840   3.761   5.566   6.199 -0.0904 -0.5329 -0.1937
 9034WAT      O36841   4.964   6.220   2.348  0.3227  0.9604 -0.4875
 9034WAT     H136842   4.880   6.198   2.338  0.3546 -0.3004  1.4004
 9034WAT     H236843   5.001   6.146   2.378  1.8566  1.8282 -0.1267
 9034WAT    EPW36844   4.957   6.206   2.351 -0.4636  0.2061 -0.5311
 9035WAT      O36845   2.359   4.100   0.971  0.4748  0.0218  0.1908
 9035WAT     H136846   2.328   4.131   1.046 -2.9821  0.4563 -1.2205
 9035WAT     H236847   2.391   4.022   0.993 -2.3260 -0.7966  1.9144
 9035WAT    EPW36848   2.359   4.093   0.985 -0.2772  0.1426  0.1522
 9036WAT      O36849   1.207   5.745   3.114 -0.0956 -0.1754 -0.3743
 9036WAT     H136850   1.285   5.736   3.076  0.2509  0.5709  0.1289
 9036WAT     H236851   1.186   5.828   3.097 -0.4556 -0.1694  0.0805
 9036WAT    EPW36852   1.216   5.756   3.106 -0.0709  0.7064 -0.1501
 9037WAT      O36853   6.261   7.061   5.276  0.1491 -0.3162 -0.2399
 9037WAT     H136854   6.263   7.142   5.308 -1.2214 -0.6869  0.8912
 9037WAT     H236855   6.345   7.038   5.271  0.5069  0.7781  0.4740
 9037WAT    EPW36856   6.273   7.069   5.280  0.4819 -0.2784 -0.3184
 9038WAT      O36857   6.924   3.065   1.948 -0.9791 -0.0616  0.1042
 9038WAT     H136858   7.001   3.087   1.982 -0.4845  0.2005 -1.1416
 9038WAT     H236859   6.867   3.115   1.991 -0.2756  0.9131 -0.0696
 9038WAT    EPW36860   6.927   3.075   1.959  0.0592 -0.2381 -0.0803
 9039WAT      O36861   7.472   0.709   2.387 -0.2488  0.0706 -0.2105
 9039WAT     H136862   7.553   0.677   2.387 -0.8642 -1.5803 -0.3279
 9039WAT     H236863   7.447   0.702   2.470 -0.7836 -0.8634 -0.4374
 9039WAT    EPW36864   7.480   0.703   2.399  0.3205  0.7861 -0.4485
 9040WAT      O36865   3.568   5.848   2.097  0.3291 -0.4910 -0.0463
 9040WAT     H136866   3.528   5.921   2.122  0.8464  0.1639 -1.1064
 9040WAT     H236867   3.528   5.786   2.145  0.1217  0.4997  1.1062
 9040WAT    EPW36868   3.556   5.849   2.108 -0.2407  0.1625 -0.3292
 9041WAT      O36869   6.263   4.255   1.463 -0.0370 -0.4057  0.7158
 9041WAT     H136870   6.201   4.195   1.450  0.4952 -1.0318  0.9796
 9041WAT     H236871   6.295   4.269   1.383 -0.6187  0.0312  0.5601
 9041WAT    EPW36872   6.259   4.248   1.449  0.3246  0.1791 -0.6703
 9042WAT      O36873   2.031   2.573   7.372 -0.2335 -0.2311  0.3581
 9042WAT     H136874   1.953   2.612   7.370 -0.2167 -0.2155 -0.4751
 9042WAT     H236875   2.011   2.488   7.369 -0.2689 -0.3181  2.1219
 9042WAT    EPW36876   2.017   2.566   7.371 -0.2086 -0.0893 -0.1188
 9043WAT      O36877   0.098   0.879   5.776 -0.1950 -0.4022  0.3526
 9043WAT     H136878   0.072   0.796   5.781  0.5025 -0.6632 -0.3509
 9043WAT     H236879   0.169   0.881   5.827 -0.7575 -0.0006  1.1524
 9043WAT    EPW36880   0.104   0.867   5.784 -0.0681 -0.6498 -0.3068
 9044WAT      O36881   1.598   4.676   6.247  0.3910  0.7106 -0.3712
 9044WAT     H136882   1.624   4.724   6.315  3.0069 -2.0194  0.7659
 9044WAT     H236883   1.656   4.696   6.184  0.6258  0.0686 -0.3593
 9044WAT    EPW36884   1.610   4.686   6.247  0.8988 -0.2006  0.1466
 9045WAT      O36885   4.385   3.909   1.669  0.1041  0.6060 -0.1734
 9045WAT     H136886   4.472   3.908   1.675  0.0266 -0.3627  1.4030
 9045WAT     H236887   4.360   3.946   1.743 -0.8498  0.8074 -0.5842
 9045WAT    EPW36888   4.394   3.914   1.681  0.1861 -0.2241  0.2160
 9046WAT      O36889   6.066   4.895   5.697  0.1565  0.7547 -0.2825
 9046WAT     H136890   6.133   4.866   5.744 -0.8175  0.5313  1.0279
 9046WAT     H236891   6.003   4.837   5.712 -0.6767  1.5414 -0.6024
 9046WAT    EPW36892   6.067   4.882   5.706  0.6630  0.4648 -0.0610
 9047WAT      O36893   3.735   7.430   2.989 -0.3981 -0.4370 -0.4479
 9047WAT     H136894   3.777   7.412   2.915 -0.2596 -0.5237 -0.3488
 9047WAT     H236895   3.797   7.421   3.051 -0.5917 -0.6862 -0.2891
 9047WAT    EPW36896   3.751   7.426   2.988  0.4875 -0.4507 -0.1932
 9048WAT      O36897   3.634   6.172   5.520 -0.0636 -0.2672 -0.3457
 9048WAT     H136898   3.684   6.204   5.584 -1.4963 -0.3748  0.8870
 9048WAT     H236899   3.567   6.227   5.517 -0.4932 -0.8179 -1.0959
 9048WAT    EPW36900   3.632   6.185   5.529 -0.8839 -0.0127  0.6999
 9049WAT      O36901   4.746   5.075   6.775 -0.3874 -0.3211  0.0548
 9049WAT     H136902   4.683   5.099   6.720  0.9318  2.0228 -0.5653
 9049WAT     H236903   4.800   5.028   6.725 -0.0864  0.2958 -0.1994
 9049WAT    EPW36904   4.745   5.072   6.760 -0.0483  0.0164 -0.0318
 9050WAT      O36905   0.867   4.688   2.871 -0.1447  0.2822  0.0770
 9050WAT     H136906   0.853   4.773   2.880  0.0709  0.3447 -0.1720
 9050WAT     H236907   0.934   4.672   2.925  0.3303  0.4218 -0.4630
 9050WAT    EPW36908   0.875   4.698   2.880 -0.3648 -0.3063 -0.3566
 9051WAT      O36909   0.216   2.505   7.077 -0.3964  0.5412 -0.4578
 9051WAT     H136910   0.243   2.452   7.014 -1.4093 -0.3542 -0.1603
 9051WAT     H236911   0.238   2.585   7.048 -0.3719  0.1036 -1.6765
 9051WAT    EPW36912   0.224   2.509   7.064 -0.4051 -0.5214  0.5946
 9052WAT      O36913   5.108   1.877   3.013 -0.0290 -0.3265  0.0218
 9052WAT     H136914   5.191   1.865   3.038 -0.7280 -2.2278  1.6323
 9052WAT     H236915   5.069   1.909   3.085 -0.7957  0.2254 -0.6139
 9052WAT    EPW36916   5.114   1.880   3.027 -0.2924  0.9808  0.1673
 9053WAT      O36917   5.359   0.041   4.800  0.4452  0.4486 -0.0536
 9053WAT     H136918   5.283   0.002   4.818  0.2437  1.0715  0.4938
 9053WAT     H236919   5.387  -0.001   4.730 -1.3045  1.4000 -1.4027
 9053WAT    EPW36920   5.352   0.029   4.793 -0.1657 -0.0347  0.0096
 9054WAT      O36921   2.347   5.278   7.112 -1.0308  0.8196 -0.0945
 9054WAT     H136922   2.364   5.221   7.175 -2.3581 -0.1754 -0.6080
 9054WAT     H236923   2.263   5.265   7.094 -0.5390  0.5332 -2.5575
 9054WAT    EPW36924   2.337   5.268   7.119  0.1156 -0.3596  0.3609
 9055WAT      O36925   4.866   4.802   7.142  0.2815 -0.0198 -0.1263
 9055WAT     H136926   4.950   4.781   7.137 -0.1512 -1.5301 -2.0605
 9055WAT     H236927   4.866   4.889   7.139  1.7589 -0.0023 -0.0855
 9055WAT    EPW36928   4.878   4.812   7.141  0.0441  0.2515  0.0560
 9056WAT      O36929   6.282   6.328   4.720 -0.6695 -0.0309 -0.2367
 9056WAT     H136930   6.269   6.326   4.634 -0.4537  1.2461 -0.3183
 9056WAT     H236931   6.357   6.286   4.731 -0.6672 -0.1436 -0.6788
 9056WAT    EPW36932   6.291   6.321   4.709 -0.0144  0.5701  0.4219
 9057WAT      O36933   1.746   2.050   1.422 -0.0870  0.5982 -0.6987
 9057WAT     H136934   1.819   2.092   1.399  0.3807  0.3612  0.3350
 9057WAT     H236935   1.717   2.094   1.491 -1.3286  1.1224 -1.5124
 9057WAT    EPW36936   1.752   2.062   1.429 -0.1348 -0.1908  0.2575
 9058WAT      O36937   5.219   3.769   2.276  0.0528  0.1138 -0.2081
 9058WAT     H136938   5.270   3.815   2.223  0.5338 -0.6702 -0.4368
 9058WAT     H236939   5.191   3.829   2.334  1.2516  0.5592 -0.0585
 9058WAT    EPW36940   5.222   3.785   2.277  0.5288  0.1259  0.7881
 9059WAT      O36941   1.087   4.876   2.498 -0.4717 -0.4111  0.5501
 9059WAT     H136942   1.035   4.913   2.557  0.2080  0.3836  0.6665
 9059WAT     H236943   1.165   4.912   2.514 -0.0995 -0.8272 -0.2770
 9059WAT    EPW36944   1.091   4.886   2.509 -0.3717  0.4371 -0.0307
 9060WAT      O36945   1.763   5.303   2.263  0.1766  0.7482  0.2936
 9060WAT     H136946   1.714   5.303   2.191  0.5718  2.0011  0.0153
 9060WAT     H236947   1.795   5.222   2.265  0.1267  0.6783 -0.9162
 9060WAT    EPW36948   1.761   5.291   2.253  0.5293 -0.1750 -0.7951
 9061WAT      O36949   1.688   6.240   4.742  0.4760  0.3394 -0.0940
 9061WAT     H136950   1.654   6.265   4.666  1.0659 -3.6704 -1.9637
 9061WAT     H236951   1.771   6.225   4.723  0.9479  0.4077  1.7270
 9061WAT    EPW36952   1.695   6.241   4.728  0.1532 -0.0463 -0.6749
 9062WAT      O36953   2.937   0.042   7.029  0.2042 -0.4823  0.0817
 9062WAT     H136954   2.922   0.040   7.115 -2.6083 -1.8160 -0.3160
 9062WAT     H236955   3.005  -0.012   7.019  0.7311 -0.1060  1.4820
 9062WAT    EPW36956   2.945   0.034   7.040  0.5264  0.2308  0.4516
 9063WAT      O36957   5.242   0.993   2.135  0.0585 -0.2491 -0.0414
 9063WAT     H136958   5.208   0.920   2.169  0.5693  0.4075  2.0110
 9063WAT     H236959   5.327   0.976   2.132  0.2222  0.3783  0.8118
 9063WAT    EPW36960   5.249   0.979   2.140 -0.6689  0.4518  0.2530
 9064WAT      O36961   4.770   1.011   5.876  0.3970 -0.5730 -0.2800
 9064WAT     H136962   4.768   1.029   5.791  0.0635 -1.3524 -0.4514
 9064WAT     H236963   4.744   0.927   5.880 -0.8776 -0.1709  0.6915
 9064WAT    EPW36964   4.766   1.001   5.864 -0.3250  0.5123  0.3571
 9065WAT      O36965   7.356   6.264   2.402  0.1354 -0.3702  0.2193
 9065WAT     H136966   7.427   6.248   2.354  0.9575  1.4257  0.7371
 9065WAT     H236967   7.292   6.270   2.343  0.8396  0.2386 -0.5012
 9065WAT    EPW36968   7.357   6.263   2.386 -0.3787  0.2043  0.0561
 9066WAT      O36969   5.130   0.417   2.478  0.6606  0.3661 -0.1826
 9066WAT     H136970   5.120   0.415   2.565 -0.1532 -0.6679 -0.2833
 9066WAT     H236971   5.215   0.399   2.467  0.7644  0.4677  0.3926
 9066WAT    EPW36972   5.141   0.414   2.489 -0.2183  0.4094  0.5339
 9067WAT      O36973   6.928   6.070   6.673 -0.2797  0.7728 -0.2972
 9067WAT     H136974   6.874   6.004   6.655  0.8228 -0.8254  1.6994
 9067WAT     H236975   6.976   6.078   6.601 -0.4317 -0.6975 -0.5952
 9067WAT    EPW36976   6.927   6.061   6.660  0.0181  0.0359  0.2350
 9068WAT      O36977   0.258   6.794   3.663  0.1679  0.3022  0.6863
 9068WAT     H136978   0.193   6.844   3.693 -0.3722  0.0596 -0.0617
 9068WAT     H236979   0.320   6.852   3.642 -0.3315  0.6459  0.1315
 9068WAT    EPW36980   0.258   6.810   3.664  0.0983 -0.4456 -0.3855
 9069WAT      O36981   5.233   6.861   0.974  0.4218  0.9197  0.0514
 9069WAT     H136982   5.251   6.902   1.048  0.3588 -0.4049  0.8397
 9069WAT     H236983   5.279   6.787   0.980 -0.8797  0.0282 -0.4344
 9069WAT    EPW36984   5.242   6.856   0.986 -0.1212 -0.4051  0.0841
 9070WAT      O36985   7.107   0.788   5.494  0.0454 -0.0766  0.1041
 9070WAT     H136986   7.069   0.778   5.416 -1.6261  2.1404  0.5336
 9070WAT     H236987   7.186   0.753   5.482 -0.9468 -1.9357 -1.8351
 9070WAT    EPW36988   7.113   0.781   5.481  0.1849 -0.0620 -0.1563
 9071WAT      O36989   5.011   0.181   0.309 -0.4396 -0.6128 -0.2966
 9071WAT     H136990   5.028   0.097   0.320  0.5398 -0.4549 -0.5370
 9071WAT     H236991   4.926   0.187   0.326 -0.0920 -1.2626  1.9894
 9071WAT    EPW36992   5.001   0.170   0.313  0.8683 -0.4726  0.5318
 9072WAT      O36993   2.241   2.624   0.618 -0.2404  0.0439  0.1292
 9072WAT     H136994   2.163   2.663   0.609 -0.7886 -1.2874 -1.6476
 9072WAT     H236995   2.295   2.690   0.633 -1.2909  1.4073 -1.6190
 9072WAT    EPW36996   2.237   2.640   0.619  0.4730 -0.2508 -0.0157
 9073WAT      O36997   4.465   6.599   3.979  0.2232  0.5238  0.1217
 9073WAT     H136998   4.495   6.680   3.991  2.7033 -0.4568  1.2709
 9073WAT     H236999   4.461   6.567   4.060 -2.0514 -0.1283 -0.1827
 9073WAT    EPW37000   4.469   6.606   3.993  0.0934 -0.3639  0.5297
 9074WAT      O37001   3.580   3.045   0.617  0.6646 -0.2180 -0.2382
 9074WAT     H137002   3.497   3.059   0.594  0.0936 -2.5403  0.1745
 9074WAT     H237003   3.623   3.043   0.541  0.3819  1.0506 -0.4491
 9074WAT    EPW37004   3.574   3.047   0.602 -0.4058  0.3079 -0.0654
 9075WAT      O37005   3.163   1.024   5.442 -0.7591 -0.1135 -0.1165
 9075WAT     H137006   3.228   0.967   5.451 -0.0220  0.5858 -0.9370
 9075WAT     H237007   3.202   1.098   5.419 -1.9066  0.1274 -1.4173
 9075WAT    EPW37008   3.178   1.026   5.440 -0.7852  0.2629  0.4879
 9076WAT      O37009   6.508   5.440   0.718  0.1477 -0.8753  0.0340
 9076WAT     H137010   6.436   5.486   0.699  0.2455 -1.0701 -0.8451
 9076WAT     H237011   6.482   5.357   0.710 -0.3363 -1.0494  2.7351
 9076WAT    EPW37012   6.494   5.435   0.714 -0.3269  0.2258  0.2797
 9077WAT      O37013   4.722   3.127   5.660 -0.0249 -0.2210  0.0947
 9077WAT     H137014   4.805   3.117   5.637  0.5617  2.8189  0.4061
 9077WAT     H237015   4.728   3.165   5.739 -1.7515 -0.9216  0.6034
 9077WAT    EPW37016   4.735   3.131   5.668 -0.4315  0.1548 -0.0969
 9078WAT      O37017   0.294   3.271   5.220 -0.3668  0.1775  0.5346
 9078WAT     H137018   0.362   3.321   5.196 -0.3179  0.3945  1.1057
 9078WAT     H237019   0.251   3.322   5.277 -1.4843  0.3691 -0.4554
 9078WAT    EPW37020   0.298   3.286   5.225  0.1256 -0.2576 -0.1680
 9079WAT      O37021   0.684   3.511   7.514  0.0821  0.0051  0.1325
 9079WAT     H137022   0.722   3.529   7.590  2.6665 -1.1542 -0.7335
 9079WAT     H237023   0.663   3.426   7.521  0.7448 -0.2353 -0.5332
 9079WAT    EPW37024   0.687   3.501   7.526  0.2163 -0.2906  0.1670
 9080WAT      O37025   1.515   5.723   6.539  0.1334  0.6721 -0.7596
 9080WAT     H137026   1.463   5.689   6.601  0.5755  1.9204  0.3418
 9080WAT     H237027   1.571   5.658   6.522  0.5440  0.5720  0.8021
 9080WAT    EPW37028   1.515   5.708   6.546 -0.5083 -0.3119  0.0200
 9081WAT      O37029   1.678   0.219   7.198  0.1999 -0.2569 -0.4399
 9081WAT     H137030   1.693   0.249   7.279 -2.2496 -2.5102  1.0183
 9081WAT     H237031   1.640   0.287   7.158  2.5944  1.3163 -0.1957
 9081WAT    EPW37032   1.674   0.233   7.204  0.3872  0.7069 -0.5664
 9082WAT      O37033   2.011   0.868   5.770 -0.4640  0.4517 -0.1073
 9082WAT     H137034   2.052   0.943   5.753  0.0415  0.7339  2.0351
 9082WAT     H237035   1.929   0.882   5.744 -0.4678  1.9268  0.5929
 9082WAT    EPW37036   2.005   0.881   5.764 -0.2333  0.6713 -0.0715
 9083WAT      O37037   4.759   3.728   6.715  0.3456  0.5634  0.2564
 9083WAT     H137038   4.760   3.806   6.676 -0.2425  0.0801 -0.7927
 9083WAT     H237039   4.755   3.672   6.648  0.3098 -0.3513  0.9942
 9083WAT    EPW37040   4.758   3.731   6.699  0.1343  0.9630 -0.4020
 9084WAT      O37041   4.387   3.408   6.897  0.0090  0.1412  0.2415
 9084WAT     H137042   4.395   3.321   6.901 -3.6249 -0.4634 -1.6184
 9084WAT     H237043   4.421   3.429   6.820  1.2883  0.4976  0.8782
 9084WAT    EPW37044   4.393   3.399   6.887 -0.1068  0.2088 -0.1110
 9085WAT      O37045   6.901   4.614   5.599 -0.4923 -0.2627 -0.2384
 9085WAT     H137046   6.906   4.698   5.576 -0.5555 -0.1732  0.0644
 9085WAT     H237047   6.905   4.571   5.523  0.3898 -0.0189 -0.3428
 9085WAT    EPW37048   6.902   4.620   5.585 -0.5148 -0.3863 -0.4515
 9086WAT      O37049   4.434   5.355   3.594 -0.6578 -0.1087  0.4648
 9086WAT     H137050   4.378   5.291   3.574  0.9884 -1.7027  0.7337
 9086WAT     H237051   4.504   5.337   3.546  0.3783  0.6586  1.6291
 9086WAT    EPW37052   4.436   5.343   3.584  0.0210 -0.1440  0.8230
 9087WAT      O37053   0.228   0.290   0.486  0.4311 -0.1958 -0.6011
 9087WAT     H137054   0.282   0.225   0.462 -1.7555 -1.7048 -1.7130
 9087WAT     H237055   0.168   0.249   0.535 -0.8126  1.0679 -1.0285
 9087WAT    EPW37056   0.227   0.274   0.490 -0.3525  0.0803 -0.0619
 9088WAT      O37057   1.886   1.134   6.304  0.1354  0.4246 -0.4462
 9088WAT     H137058   1.914   1.073   6.248  1.6791  1.7081 -1.1612
 9088WAT     H237059   1.800   1.138   6.288  0.2811 -0.3594 -1.5949
 9088WAT    EPW37060   1.877   1.125   6.293 -0.0106 -0.6388  0.1576
 9089WAT      O37061   1.512   0.011   0.529  0.1907  0.4053 -0.1832
 9089WAT     H137062   1.538   0.087   0.563  0.3124  0.3738 -0.2031
 9089WAT     H237063   1.587  -0.031   0.513  0.1529  0.5490 -0.7927
 9089WAT    EPW37064   1.527   0.016   0.531  0.0250 -0.1871 -0.3193
 9090WAT      O37065   7.631   1.174   0.711  0.3025 -0.4473 -0.4541
 9090WAT     H137066   7.706   1.188   0.668  1.8115  0.1298  2.1457
 9090WAT     H237067   7.589   1.117   0.661  2.8140 -1.3591 -1.6848
 9090WAT    EPW37068   7.636   1.168   0.697  0.0052 -0.1466 -0.3077
 9091WAT      O37069   2.331   5.997   6.982  0.3294 -0.8740 -0.0331
 9091WAT     H137070   2.245   6.009   6.974 -0.0343 -3.6082 -1.7102
 9091WAT     H237071   2.366   6.062   6.934 -0.8658 -0.4356 -0.3340
 9091WAT    EPW37072   2.324   6.009   6.973  0.2686  0.1356  0.8123
 9092WAT      O37073   7.655   1.549   5.766  0.5973  0.0186  0.3545
 9092WAT     H137074   7.589   1.492   5.769 -0.0670  0.3398 -3.4633
 9092WAT     H237075   7.633   1.610   5.824 -1.2105 -1.0940  0.8989
 9092WAT    EPW37076   7.642   1.550   5.775 -0.0787 -0.4308 -0.1112
 9093WAT      O37077   4.136   7.501   6.183 -0.1297  0.4239 -0.4672
 9093WAT     H137078   4.109   7.499   6.100 -0.1946 -0.9212 -0.4247
 9093WAT     H237079   4.213   7.542   6.178 -0.7703  1.6204 -0.9876
 9093WAT    EPW37080   4.143   7.507   6.170 -0.3419 -0.6994  0.5127
 9094WAT      O37081   2.725   1.900   2.001 -0.4021 -0.5173  0.3492
 9094WAT     H137082   2.768   1.959   2.048 -0.0712 -2.1322  2.1662
 9094WAT     H237083   2.648   1.893   2.042 -1.3148  0.1750 -1.1383
 9094WAT    EPW37084   2.720   1.908   2.014  0.3138 -0.1212 -0.0332
 9095WAT      O37085   4.471   2.228   2.848  0.4294 -0.8230 -0.3162
 9095WAT     H137086   4.421   2.242   2.917  0.7351 -0.0235 -0.2449
 9095WAT     H237087   4.430   2.271   2.784  1.0573 -0.0593 -0.2320
 9095WAT    EPW37088   4.458   2.237   2.848 -0.5675 -0.0726  0.1335
 9096WAT      O37089   3.664   2.435   2.578  0.1067  0.0972 -0.3081
 9096WAT     H137090   3.664   2.518   2.605  1.6432 -0.1117  0.4220
 9096WAT     H237091   3.583   2.423   2.549  0.3065  2.3833 -2.1089
 9096WAT    EPW37092   3.652   2.445   2.577 -0.1853 -0.4622  0.4051
 9097WAT      O37093   1.283   6.638   6.954 -0.0257 -0.0013 -0.0628
 9097WAT     H137094   1.270   6.552   6.967  0.9372  0.0054  1.1340
 9097WAT     H237095   1.297   6.669   7.034  2.3382  0.7847 -0.6761
 9097WAT    EPW37096   1.283   6.630   6.968  0.2070  0.0128  0.1045
 9098WAT      O37097   0.452   4.368   7.334  0.1810  0.0040 -0.2194
 9098WAT     H137098   0.496   4.345   7.262  0.8144  2.4925 -0.7187
 9098WAT     H237099   0.453   4.455   7.332 -0.9238  0.1559  2.1486
 9098WAT    EPW37100   0.458   4.377   7.323  0.3999  0.2128 -0.3174
 9099WAT      O37101   6.255   2.404   1.626  0.1649 -0.4345  0.5802
 9099WAT     H137102   6.226   2.485   1.643  1.3963  0.0965  0.2357
 9099WAT     H237103   6.195   2.353   1.664 -0.7288  0.6279  0.6527
 9099WAT    EPW37104   6.242   2.408   1.634  0.0539 -0.3695  0.3335
 9100WAT      O37105   6.884   5.112   5.138 -0.4595 -0.0415  0.0284
 9100WAT     H137106   6.933   5.182   5.153  0.1080 -0.5856  0.8104
 9100WAT     H237107   6.938   5.045   5.156 -1.3993 -0.6642  0.6430
 9100WAT    EPW37108   6.899   5.112   5.142  0.0057 -0.5542 -0.1362
 9101WAT      O37109   1.619   5.723   3.845  0.1715  0.0501 -0.2246
 9101WAT     H137110   1.539   5.710   3.877 -0.3429  2.2424 -0.4828
 9101WAT     H237111   1.650   5.642   3.833 -1.8984 -0.8418  0.1212
 9101WAT    EPW37112   1.612   5.709   3.848 -0.0534 -0.0086  0.3841
 9102WAT      O37113   0.701   6.304   2.335 -0.2053 -0.0934 -0.8122
 9102WAT     H137114   0.632   6.256   2.360  0.5316 -0.7246  0.0610
 9102WAT     H237115   0.664   6.378   2.306 -1.1985  0.9468  2.5632
 9102WAT    EPW37116   0.685   6.308   2.335 -0.6494 -0.0768  0.1778
 9103WAT      O37117   1.875   1.430   2.267  0.2780 -0.3120 -0.1767
 9103WAT     H137118   1.793   1.438   2.239  0.4165  0.6685 -0.3368
 9103WAT     H237119   1.905   1.361   2.223 -0.2897 -0.3330 -0.5386
 9103WAT    EPW37120   1.868   1.421   2.256 -0.3527  0.1265 -0.4268
 9104WAT      O37121   6.574   0.531   3.547 -0.3654  0.0848  0.4681
 9104WAT     H137122   6.513   0.578   3.586 -1.4309 -0.7791 -0.0956
 9104WAT     H237123   6.539   0.451   3.543  0.5076 -0.2745 -0.4884
 9104WAT    EPW37124   6.560   0.526   3.552  0.2583  0.4557 -0.1739
 9105WAT      O37125   6.407   7.199   2.365 -0.3208  0.5730  0.1267
 9105WAT     H137126   6.435   7.155   2.435 -2.2139 -0.3983  0.3519
 9105WAT     H237127   6.444   7.277   2.374 -0.7072  0.5601  2.3835
 9105WAT    EPW37128   6.416   7.204   2.377  0.1014 -0.0358 -0.2404
 9106WAT      O37129   7.045   2.952   1.704  0.1736  0.1099  0.0877
 9106WAT     H137130   6.982   2.916   1.656  0.4374  0.3977 -0.4803
 9106WAT     H237131   7.001   2.998   1.764 -0.2596  2.6723 -2.0016
 9106WAT    EPW37132   7.029   2.953   1.706  0.5351  0.1632  0.1472
 9107WAT      O37133   7.491   0.888   7.011 -0.0814 -0.4621  0.5517
 9107WAT     H137134   7.498   0.808   6.977  0.3346 -0.3584  0.3805
 9107WAT     H237135   7.514   0.940   6.945  2.0038 -0.3119  1.2985
 9107WAT    EPW37136   7.496   0.884   6.996 -0.0857  0.8616 -0.8696
 9108WAT      O37137   2.628   4.946   3.268  0.4522 -1.1088 -0.4597
 9108WAT     H137138   2.577   4.969   3.335 -1.9326  0.4750 -2.6299
 9108WAT     H237139   2.666   4.872   3.295 -0.2594 -0.4856  2.6265
 9108WAT    EPW37140   2.626   4.938   3.282 -0.0559  0.4092 -0.1572
 9109WAT      O37141   6.841   5.076   3.693  0.2216  0.2131  0.0049
 9109WAT     H137142   6.878   5.001   3.718  0.2825  0.3569  0.3500
 9109WAT     H237143   6.789   5.097   3.760 -0.4338  0.0493 -0.4459
 9109WAT    EPW37144   6.839   5.068   3.707 -0.1219  0.1531 -0.0945
 9110WAT      O37145   0.215   0.119   7.359 -0.3715  0.2766 -0.3368
 9110WAT     H137146   0.172   0.180   7.405  0.8082  0.4966  0.5336
 9110WAT     H237147   0.193   0.044   7.399  1.5696  0.5579  1.4872
 9110WAT    EPW37148   0.206   0.117   7.372  0.2401  0.0482  0.0116
 9111WAT      O37149   1.035   4.562   5.795  0.1005 -0.8246  0.0904
 9111WAT     H137150   1.073   4.615   5.853  1.4436 -1.2116 -0.3858
 9111WAT     H237151   1.047   4.603   5.719  0.5818 -1.4954 -0.2028
 9111WAT    EPW37152   1.043   4.576   5.793  0.3798 -0.6702  0.2973
 9112WAT      O37153   1.628   2.317   0.048 -0.0871  0.4476  0.4135
 9112WAT     H137154   1.636   2.358   0.124  0.3837 -0.3868  0.8345
 9112WAT     H237155   1.566   2.257   0.062 -1.4232  1.5711 -0.4630
 9112WAT    EPW37156   1.620   2.314   0.061 -0.3460 -0.3515 -0.0718
 9113WAT      O37157   0.670   4.761   0.491  0.2746  0.1870  0.1973
 9113WAT     H137158   0.654   4.773   0.575  1.0187  1.8433  0.1339
 9113WAT     H237159   0.601   4.797   0.451  0.4288  0.3648  0.0867
 9113WAT    EPW37160   0.657   4.768   0.497 -0.4735  0.3212  0.7212
 9114WAT      O37161   1.865   2.991   0.540 -0.5679 -0.0249  0.2077
 9114WAT     H137162   1.886   3.051   0.480  0.3271 -0.7629 -0.2333
 9114WAT     H237163   1.808   3.033   0.591 -0.4691  0.9875 -0.4814
 9114WAT    EPW37164   1.860   3.006   0.538  0.2185 -0.1970  0.0990
 9115WAT      O37165   2.157   4.231   7.232 -0.6134 -0.5802  0.2930
 9115WAT     H137166   2.140   4.170   7.172 -0.5560 -1.2244  0.9127
 9115WAT     H237167   2.097   4.292   7.216 -0.4785 -0.6515 -0.5325
 9115WAT    EPW37168   2.145   4.231   7.221 -0.1422 -0.2138  0.2194
 9116WAT      O37169   5.593   3.547   7.296  0.0619 -0.6630  0.1973
 9116WAT     H137170   5.526   3.494   7.279 -0.2199 -0.7648  1.5360
 9116WAT     H237171   5.567   3.592   7.366  1.0518 -0.0846  0.2188
 9116WAT    EPW37172   5.579   3.546   7.304 -0.1310 -0.0987 -0.0699
 9117WAT      O37173   4.489   7.160   5.289  0.4128  0.1056 -0.0740
 9117WAT     H137174   4.476   7.075   5.276  2.8499 -0.1714 -1.4101
 9117WAT     H237175   4.419   7.197   5.254  0.3321 -1.2974 -1.5413
 9117WAT    EPW37176   4.477   7.153   5.282 -0.0671 -0.1068 -0.6521
 9118WAT      O37177   5.286   1.105   7.139 -0.3589  0.0366  1.0511
 9118WAT     H137178   5.267   1.190   7.133 -0.0018  0.0533 -0.1874
 9118WAT     H237179   5.271   1.086   7.223 -2.8981  0.7248  0.8158
 9118WAT    EPW37180   5.281   1.115   7.151 -0.1791  0.2599  0.6504
 9119WAT      O37181   0.539   6.283   3.323  0.4069 -0.6657 -0.6277
 9119WAT     H137182   0.466   6.252   3.288 -0.3597 -0.5174  0.7816
 9119WAT     H237183   0.529   6.269   3.409  1.4398  0.5524 -0.2678
 9119WAT    EPW37184   0.527   6.276   3.331  0.5042  0.2258  0.3663
 9120WAT      O37185   1.956   0.398   5.591  0.0755 -0.2121  0.2769
 9120WAT     H137186   2.040   0.378   5.583  0.2935  0.9700 -0.5746
 9120WAT     H237187   1.916   0.320   5.590  1.1141 -0.7561  0.2493
 9120WAT    EPW37188   1.963   0.383   5.590 -0.0480  0.0134  0.1782
 9121WAT      O37189   2.900   5.120   1.054 -0.1472  0.0584  0.0347
 9121WAT     H137190   2.933   5.064   1.112 -1.3030 -0.9687 -0.2334
 9121WAT     H237191   2.813   5.111   1.064 -0.3548  1.2744 -0.5284
 9121WAT    EPW37192   2.892   5.110   1.064  0.1786  0.3213  0.3313
 9122WAT      O37193   0.331   3.805   1.980  0.0964 -0.1559  0.0501
 9122WAT     H137194   0.263   3.788   1.928  0.3688  1.1423 -0.7754
 9122WAT     H237195   0.313   3.884   2.012  1.1493  0.1549 -0.0870
 9122WAT    EPW37196   0.318   3.814   1.977 -0.1419  0.1294 -0.3118
 9123WAT      O37197   0.147   5.784   6.847 -0.1171 -0.4372  0.5278
 9123WAT     H137198   0.071   5.809   6.882  0.9505  1.2678  1.8034
 9123WAT     H237199   0.198   5.770   6.917  1.4391  0.8404 -0.2871
 9123WAT    EPW37200   0.143   5.785   6.863 -0.1820  0.1582  0.2753
 9124WAT      O37201   0.166   6.024   2.474 -0.1595 -0.1051 -0.1805
 9124WAT     H137202   0.140   5.940   2.471  1.6459 -0.8071  1.4878
 9124WAT     H237203   0.143   6.050   2.554  0.9747  0.3614  0.0149
 9124WAT    EPW37204   0.159   6.015   2.486  0.2656  0.4709 -0.0730
 9125WAT      O37205   1.161   4.951   1.208  0.2943 -0.0105 -0.0656
 9125WAT     H137206   1.117   5.019   1.175 -1.3281 -1.1035 -0.2832
 9125WAT     H237207   1.241   4.982   1.219 -0.6266  2.2826  0.8706
 9125WAT    EPW37208   1.166   4.966   1.205  0.1247  0.0521 -0.3277
 9126WAT      O37209   1.706   0.531   3.285 -0.3842  0.0150  0.6018
 9126WAT     H137210   1.723   0.530   3.199  2.9513 -0.8383  1.1188
 9126WAT     H237211   1.747   0.602   3.313  0.7371 -1.0632  1.7913
 9126WAT    EPW37212   1.714   0.541   3.276  0.3528 -0.5263 -0.1201
 9127WAT      O37213   1.340   2.524   2.331 -0.5670  0.4794  0.0660
 9127WAT     H137214   1.402   2.573   2.368 -1.5581  1.8815 -0.0717
 9127WAT     H237215   1.339   2.551   2.248  0.6646 -1.6561 -0.7189
 9127WAT    EPW37216   1.349   2.535   2.325  0.1283 -0.3465 -0.4590
 9128WAT      O37217   0.946   7.359   1.735 -0.5198  0.0711 -0.0584
 9128WAT     H137218   0.945   7.282   1.695  0.7924  0.4301 -0.8564
 9128WAT     H237219   0.980   7.342   1.813 -0.8792 -0.2640  0.0253
 9128WAT    EPW37220   0.951   7.345   1.740  1.0739 -0.6787  0.3484
 9129WAT      O37221   4.055   0.379   7.046  0.2651  0.1154 -0.3566
 9129WAT     H137222   3.975   0.352   7.069 -1.0395  2.7976 -1.3126
 9129WAT     H237223   4.087   0.412   7.120 -0.3575  0.8490 -0.4028
 9129WAT    EPW37224   4.048   0.380   7.061 -0.2594 -0.3441 -0.2765
 9130WAT      O37225   4.542   5.493   5.141 -0.5995  0.3079  0.5458
 9130WAT     H137226   4.622   5.514   5.167 -0.3906  0.9477 -0.5355
 9130WAT     H237227   4.551   5.411   5.110 -0.2772  0.4927  0.1313
 9130WAT    EPW37228   4.555   5.484   5.140  0.1826 -0.0832 -0.1313
 9131WAT      O37229   2.410   0.568   7.006  0.4909  0.7382  0.3906
 9131WAT     H137230   2.471   0.512   7.034 -1.6219 -0.6690  2.5232
 9131WAT     H237231   2.440   0.645   7.033  1.1016  0.0167  1.8889
 9131WAT    EPW37232   2.424   0.571   7.014  0.0066  0.5444  0.2258
 9132WAT      O37233   4.706   6.893   2.515 -0.1424  0.1517  0.4456
 9132WAT     H137234   4.667   6.910   2.591 -1.1683  1.0038 -0.2424
 9132WAT     H237235   4.721   6.972   2.481 -0.1142 -0.2118 -0.4297
 9132WAT    EPW37236   4.702   6.907   2.521  0.0380 -0.1194  0.4289
 9133WAT      O37237   0.421   0.748   2.503 -0.1487 -0.6414  0.4869
 9133WAT     H137238   0.420   0.660   2.503  1.1427 -0.7170  2.4649
 9133WAT     H237239   0.377   0.768   2.575 -1.5705  0.4346 -0.6269
 9133WAT    EPW37240   0.414   0.738   2.513  0.6443  0.5833  0.1762
 9134WAT      O37241   1.900   3.595   7.437  0.1279  0.2048 -0.0634
 9134WAT     H137242   1.818   3.591   7.408  0.2339  0.3621 -0.3954
 9134WAT     H237243   1.941   3.534   7.390  0.4594  0.9686 -0.7811
 9134WAT    EPW37244   1.894   3.585   7.426 -0.2409 -0.0638  0.0870
 9135WAT      O37245   6.981   1.942   2.531 -0.1032  0.0404 -0.0218
 9135WAT     H137246   7.011   1.911   2.454  1.7315  1.6093 -0.0071
 9135WAT     H237247   6.958   1.870   2.574  3.2554 -1.3842 -0.2815
 9135WAT    EPW37248   6.982   1.927   2.526  0.4374 -0.5198  0.1540
 9136WAT      O37249   0.737   5.368   3.330  0.3550  0.0578 -0.5936
 9136WAT     H137250   0.751   5.402   3.251  0.4530  1.1733 -0.1263
 9136WAT     H237251   0.779   5.423   3.383 -1.2958  0.4491  0.3884
 9136WAT    EPW37252   0.745   5.381   3.326 -0.3624 -0.3189  0.4806
 9137WAT      O37253   4.545   6.133   7.031  0.0045 -0.2912  0.0962
 9137WAT     H137254   4.556   6.219   7.042  0.1867 -0.5304  2.3561
 9137WAT     H237255   4.463   6.120   7.058 -1.0478 -0.5214 -2.8681
 9137WAT    EPW37256   4.534   6.144   7.037  0.2577  0.2633  0.4054
 9138WAT      O37257   7.060   4.241   2.520  0.5427 -0.1041  0.0827
 9138WAT     H137258   7.037   4.321   2.547 -3.0050 -1.3241  1.2009
 9138WAT     H237259   7.054   4.247   2.433 -0.7052  0.6149  0.1987
 9138WAT    EPW37260   7.056   4.254   2.511 -0.1324 -0.2288  0.7770
 9139WAT      O37261   1.231   7.302   6.651 -0.5199 -0.2700  0.3963
 9139WAT     H137262   1.191   7.242   6.699 -0.8052 -0.9290 -0.6280
 9139WAT     H237263   1.280   7.255   6.596 -1.3966  0.3618 -0.9889
 9139WAT    EPW37264   1.232   7.286   6.650  0.1262 -0.4024 -0.5595
 9140WAT      O37265   2.186   2.120   3.028 -0.3369  0.0742  0.2534
 9140WAT     H137266   2.259   2.133   2.983 -1.3393 -1.7733 -2.1440
 9140WAT     H237267   2.132   2.182   2.998 -0.5924 -0.2976 -0.0566
 9140WAT    EPW37268   2.189   2.131   3.017 -0.3888 -0.1177 -0.0511
 9141WAT      O37269   1.524   0.392   5.340 -0.2943 -0.3781 -0.5784
 9141WAT     H137270   1.610   0.403   5.335 -0.2974 -0.2130 -0.2959
 9141WAT     H237271   1.514   0.306   5.351 -0.1478 -0.3486 -0.2046
 9141WAT    EPW37272   1.535   0.381   5.341  0.0541 -0.0749  0.6553
 9142WAT      O37273   6.552   6.215   2.755 -0.2664 -0.0059 -0.1967
 9142WAT     H137274   6.571   6.140   2.795  1.8768 -0.2642 -1.5223
 9142WAT     H237275   6.613   6.271   2.785 -1.3466  0.9970  0.1865
 9142WAT    EPW37276   6.564   6.212   2.765  0.3301  0.4129  0.7158
 9143WAT      O37277   4.138   7.244   1.730  0.1470  0.5089 -0.3436
 9143WAT     H137278   4.065   7.210   1.695 -1.1128  2.1313  0.5401
 9143WAT     H237279   4.202   7.200   1.691 -1.2162  0.6843 -3.0254
 9143WAT    EPW37280   4.136   7.233   1.719 -0.0631  0.0438 -0.1745
 9144WAT      O37281   1.647   4.855   4.952  0.0560 -0.0448  0.0527
 9144WAT     H137282   1.694   4.782   4.950 -1.5874 -1.2093  1.0708
 9144WAT     H237283   1.662   4.888   5.031  0.7968  0.7573 -0.4049
 9144WAT    EPW37284   1.656   4.849   4.963  0.2963 -0.2998 -0.2167
 9145WAT      O37285   0.309   2.829   0.104 -0.4636  0.5742 -0.6882
 9145WAT     H137286   0.327   2.881   0.172 -0.5893  0.5487 -0.6339
 9145WAT     H237287   0.372   2.768   0.107  0.3444  1.3544 -1.4242
 9145WAT    EPW37288   0.321   2.827   0.115  0.4916 -0.3773  0.2130
 9146WAT      O37289   4.905   2.773   4.048 -0.2946 -0.5648  0.1806
 9146WAT     H137290   4.827   2.771   4.087 -0.5175 -1.2472 -0.2744
 9146WAT     H237291   4.885   2.767   3.963  0.2053  0.3617 -0.0147
 9146WAT    EPW37292   4.891   2.772   4.041  0.2567 -0.0603 -0.1756
 9147WAT      O37293   2.011   0.209   7.543  0.3267  0.2239 -0.5231
 9147WAT     H137294   2.071   0.230   7.483 -0.9625 -0.2924 -2.0728
 9147WAT     H237295   1.954   0.161   7.498 -0.1071 -1.2048  1.4153
 9147WAT    EPW37296   2.012   0.205   7.528 -0.5439 -0.7194 -0.2388
 9148WAT      O37297   4.120   2.358   0.256 -0.2494 -0.4468  0.0116
 9148WAT     H137298   4.109   2.420   0.316  2.0092  0.0132  0.0527
 9148WAT     H237299   4.098   2.285   0.298  0.2338 -0.0105  1.0627
 9148WAT    EPW37300   4.115   2.356   0.271  0.1164 -0.0685  0.4280
 9149WAT      O37301   4.199   6.585   3.322 -0.3946 -0.3384 -0.6009
 9149WAT     H137302   4.284   6.595   3.304 -0.4265 -0.5429 -0.8705
 9149WAT     H237303   4.187   6.499   3.321 -0.7575 -0.2841 -1.3019
 9149WAT    EPW37304   4.210   6.574   3.319 -0.0473 -0.3135 -0.4136
 9150WAT      O37305   7.402   7.243   0.734  0.1904  0.0359 -0.0059
 9150WAT     H137306   7.345   7.235   0.669  0.8898  0.1516 -0.6379
 9150WAT     H237307   7.407   7.162   0.767  1.1442 -0.4206 -1.2194
 9150WAT    EPW37308   7.394   7.230   0.729 -0.5241 -0.5086 -0.3126
 9151WAT      O37309   7.311   4.067   4.425 -0.1817 -0.0212 -0.1209
 9151WAT     H137310   7.280   4.135   4.471 -0.4992 -1.3277  1.7056
 9151WAT     H237311   7.392   4.057   4.454 -0.0693 -0.3000 -0.5223
 9151WAT    EPW37312   7.318   4.076   4.436  0.1367 -0.2016  0.2584
 9152WAT      O37313   5.090   6.990   2.797 -0.0447 -0.0789 -0.2873
 9152WAT     H137314   5.030   6.946   2.753  0.4150 -0.9792 -0.0440
 9152WAT     H237315   5.044   7.036   2.855 -0.6443  1.0410 -1.6035
 9152WAT    EPW37316   5.074   6.990   2.799 -0.0715 -0.3070 -0.3333
 9153WAT      O37317   6.121   2.643   6.201 -0.1856 -0.2563  0.2981
 9153WAT     H137318   6.114   2.560   6.176 -0.6464 -0.2212  0.3044
 9153WAT     H237319   6.125   2.687   6.126 -1.2048 -0.1827  0.2653
 9153WAT    EPW37320   6.120   2.637   6.187  0.1541  0.0779  0.2809
 9154WAT      O37321   6.552   4.365   6.631  0.1565 -0.1825  0.5861
 9154WAT     H137322   6.592   4.290   6.611  1.9301  0.7873  0.2603
 9154WAT     H237323   6.559   4.369   6.718  0.8965  0.0275  0.5234
 9154WAT    EPW37324   6.559   4.354   6.641  0.3080 -0.1690  0.3477
 9155WAT      O37325   0.422   6.398   2.564  0.1367  0.0659  0.0248
 9155WAT     H137326   0.377   6.407   2.490  0.8400  0.8840 -0.3289
 9155WAT     H237327   0.453   6.316   2.560  1.5972  0.6407 -1.4552
 9155WAT    EPW37328   0.420   6.387   2.553 -0.1643  0.0494  0.1041
 9156WAT      O37329   1.764   5.579   3.410 -0.4333  0.1938 -0.0965
 9156WAT     H137330   1.711   5.624   3.357  0.7760  1.6552 -0.1581
 9156WAT     H237331   1.732   5.593   3.489 -0.9850 -0.1783 -0.2503
 9156WAT    EPW37332   1.752   5.588   3.414 -0.0961  0.3987 -0.1906
 9157WAT      O37333   4.806   4.096   3.835 -0.0341 -0.3980 -0.1425
 9157WAT     H137334   4.881   4.139   3.846  0.3739 -1.2912  0.6984
 9157WAT     H237335   4.798   4.051   3.909 -1.9835  0.5319  0.2726
 9157WAT    EPW37336   4.816   4.096   3.847  0.1046  0.0035 -0.0310
 9158WAT      O37337   0.373   5.839   3.225 -0.0700  0.4711  0.0523
 9158WAT     H137338   0.297   5.881   3.236  0.4905  1.8961 -1.2247
 9158WAT     H237339   0.372   5.816   3.141  0.8043  0.2916  0.0850
 9158WAT    EPW37340   0.361   5.842   3.214 -0.7838  0.2000  0.6790
 9159WAT      O37341   7.036   2.236   6.778 -0.2723 -0.4429 -0.1552
 9159WAT     H137342   7.067   2.224   6.697 -1.6694 -0.4396 -0.7175
 9159WAT     H237343   6.974   2.175   6.786  0.5239 -1.1319  1.3276
 9159WAT    EPW37344   7.032   2.225   6.767 -0.4766 -0.2703 -0.4101
 9160WAT      O37345   3.247   5.483   4.367 -0.7970 -0.0390 -0.2340
 9160WAT     H137346   3.274   5.503   4.447  3.2989  1.5767 -1.7523
 9160WAT     H237347   3.284   5.406   4.351 -1.2394 -0.1559 -0.7222
 9160WAT    EPW37348   3.256   5.475   4.376  0.1590 -0.1757 -0.7441
 9161WAT      O37349   4.258   4.243   7.028 -0.4368  0.8895  0.0391
 9161WAT     H137350   4.252   4.182   7.090  0.4344  0.8280  0.0692
 9161WAT     H237351   4.325   4.217   6.979 -0.2336  1.6737 -0.1150
 9161WAT    EPW37352   4.267   4.230   7.030  0.1899  0.2878  0.0965
 9162WAT      O37353   0.478   6.970   3.639  0.0849 -0.7832  0.1054
 9162WAT     H137354   0.530   6.937   3.577  1.5659  3.4377 -1.2804
 9162WAT     H237355   0.529   7.030   3.678 -3.0933  2.3596 -0.0953
 9162WAT    EPW37356   0.493   6.974   3.636  0.2814  0.4119  0.4666
 9163WAT      O37357   3.658   1.051   7.389 -0.2267 -0.5162  0.1239
 9163WAT     H137358   3.719   1.018   7.442 -0.0258  0.6012  0.6337
 9163WAT     H237359   3.616   1.109   7.441 -0.8404 -0.3036 -0.5951
 9163WAT    EPW37360   3.661   1.055   7.405  0.0941  0.5026 -0.3103
 9164WAT      O37361   1.984   0.362   5.917  0.1560  0.2622  0.5830
 9164WAT     H137362   1.977   0.441   5.882  3.9283  0.0924 -0.9742
 9164WAT     H237363   2.047   0.371   5.976  2.4112 -1.9208 -1.2891
 9164WAT    EPW37364   1.992   0.375   5.921  0.3009 -0.3892 -0.0668
 9165WAT      O37365   3.482   1.581   0.975  0.2725  0.0898 -0.3208
 9165WAT     H137366   3.503   1.642   1.033 -1.4692  1.4354 -1.0348
 9165WAT     H237367   3.539   1.517   0.992 -0.5491  0.1052  3.3145
 9165WAT    EPW37368   3.493   1.580   0.986  0.6087 -0.0806  0.6651
 9166WAT      O37369   5.412   3.825   5.532  0.7203  0.0247  0.0883
 9166WAT     H137370   5.365   3.888   5.570  1.0325  0.0775  0.3926
 9166WAT     H237371   5.494   3.847   5.550  0.8599 -0.1029 -0.3902
 9166WAT    EPW37372   5.417   3.837   5.540 -0.3886 -0.0272  0.6624
 9167WAT      O37373   0.035   4.291   1.194 -0.5571  0.6272  0.6985
 9167WAT     H137374  -0.009   4.322   1.125 -0.8415 -1.7682 -0.3042
 9167WAT     H237375  -0.011   4.319   1.262 -2.1030  0.4456 -0.2290
 9167WAT    EPW37376   0.022   4.299   1.194  0.3736  0.1968 -0.1784
 9168WAT      O37377   0.685   0.543   6.396 -0.0706 -0.5403 -0.6684
 9168WAT     H137378   0.691   0.595   6.466  1.2001 -1.1390 -0.2917
 9168WAT     H237379   0.693   0.598   6.329 -0.3118 -0.0695 -0.3197
 9168WAT    EPW37380   0.687   0.559   6.396  0.5569 -0.1979  0.3351
 9169WAT      O37381   0.262   6.528   2.078 -0.4041  0.3978  0.0992
 9169WAT     H137382   0.198   6.560   2.127 -0.0689  0.2983  0.6114
 9169WAT     H237383   0.300   6.468   2.130 -0.6941 -0.4599 -0.6415
 9169WAT    EPW37384   0.258   6.524   2.093  0.0885 -0.0817  0.2651
 9170WAT      O37385   3.755   0.815   2.163  0.1525 -0.0097  0.0700
 9170WAT     H137386   3.749   0.835   2.078 -0.2927  0.5704  0.2313
 9170WAT     H237387   3.672   0.818   2.190  0.4192  1.1914  0.8284
 9170WAT    EPW37388   3.742   0.819   2.154 -0.2908 -0.0590 -0.3869
 9171WAT      O37389   5.907   6.692   2.978 -0.4172 -0.0217  0.0233
 9171WAT     H137390   5.994   6.694   2.991 -0.3314  0.2712 -0.5945
 9171WAT     H237391   5.888   6.607   2.983 -0.0497 -0.1155 -0.1366
 9171WAT    EPW37392   5.917   6.680   2.981  0.8146 -0.4509  0.2143
 9172WAT      O37393   1.463   5.709   3.025 -0.3794  0.0855  0.3810
 9172WAT     H137394   1.467   5.762   2.956  1.1493  0.3981  0.6776
 9172WAT     H237395   1.487   5.632   2.994  0.8066  0.3352  0.6494
 9172WAT    EPW37396   1.467   5.706   3.010  0.2623  0.1449  0.1382
 9173WAT      O37397   4.646   2.408   1.843  0.3897 -0.1614 -0.9757
 9173WAT     H137398   4.640   2.488   1.806 -1.1646 -0.0770 -0.5873
 9173WAT     H237399   4.575   2.367   1.814  0.8925 -1.2375 -0.7227
 9173WAT    EPW37400   4.635   2.414   1.833  0.3460 -0.3990  0.2467
 9174WAT      O37401   6.816   3.265   4.496  0.2164 -0.1268  0.2731
 9174WAT     H137402   6.808   3.271   4.410  3.1888 -1.0063 -0.1649
 9174WAT     H237403   6.745   3.222   4.521  0.4589 -2.0357 -2.0759
 9174WAT    EPW37404   6.805   3.260   4.487  0.3203 -0.3803  0.4588
 9175WAT      O37405   6.252   4.481   6.984 -0.1046 -0.1972  0.1106
 9175WAT     H137406   6.215   4.560   6.977  2.6565  1.2536  0.5799
 9175WAT     H237407   6.292   4.483   7.061 -0.1828 -2.2135  0.2669
 9175WAT    EPW37408   6.252   4.493   6.994 -0.7045  0.2736 -0.4040
 9176WAT      O37409   3.498   0.501   5.627  0.1131  0.5109  0.5822
 9176WAT     H137410   3.442   0.442   5.659 -0.8697  0.9395 -0.2982
 9176WAT     H237411   3.496   0.565   5.685 -0.6242  0.6943  0.3686
 9176WAT    EPW37412   3.489   0.501   5.640 -0.1878 -1.3749 -0.3460
 9177WAT      O37413   3.678   6.222   7.549  0.3065 -0.2941 -0.2479
 9177WAT     H137414   3.757   6.256   7.566 -0.6808  1.5172  1.1407
 9177WAT     H237415   3.679   6.146   7.592  1.1205 -0.0578  0.1776
 9177WAT    EPW37416   3.690   6.216   7.558  0.3799 -0.0008 -0.3080
 9178WAT      O37417   3.041   1.581   0.324 -0.0986 -0.0576 -0.4261
 9178WAT     H137418   2.968   1.603   0.367  0.2693 -0.3973  0.4005
 9178WAT     H237419   3.096   1.557   0.388  0.5882 -0.2362 -1.0671
 9178WAT    EPW37420   3.038   1.580   0.340 -0.5784 -0.3205 -0.4483
 9179WAT      O37421   5.548   7.081   1.324  0.0397  0.0168 -0.0280
 9179WAT     H137422   5.606   7.124   1.374  0.6673 -0.8887  0.0426
 9179WAT     H237423   5.545   7.128   1.251  1.3345 -0.2566 -0.2730
 9179WAT    EPW37424   5.556   7.095   1.321 -0.3241  0.0761  0.3297
 9180WAT      O37425   4.508   7.379   2.473  0.3048  0.1432 -0.2871
 9180WAT     H137426   4.514   7.445   2.417 -1.6837  1.6101  1.0648
 9180WAT     H237427   4.500   7.419   2.550  3.9804 -1.7609  1.3243
 9180WAT    EPW37428   4.508   7.395   2.476 -0.2746 -0.4553  0.1151
 9181WAT      O37429   1.500   0.149   4.155 -0.1323 -0.0184 -0.2501
 9181WAT     H137430   1.500   0.237   4.160  0.8797 -0.0507  0.5037
 9181WAT     H237431   1.565   0.131   4.101 -1.3485 -0.2798 -1.7012
 9181WAT    EPW37432   1.509   0.160   4.148  0.4595  0.5396  0.2937
 9182WAT      O37433   2.709   1.004   2.932 -0.5515 -0.4856  0.3421
 9182WAT     H137434   2.657   0.944   2.897 -0.7983 -0.8648  1.3114
 9182WAT     H237435   2.674   1.017   3.011  0.3986 -0.2036  0.7245
 9182WAT    EPW37436   2.696   0.997   2.939  0.1346 -0.7361 -0.1380
 9183WAT      O37437   5.174   2.115   5.030 -0.3319 -0.2850 -0.5125
 9183WAT     H137438   5.186   2.189   5.074  1.2766 -0.1897 -1.0542
 9183WAT     H237439   5.087   2.109   5.023 -0.5612  0.6108  1.0742
 9183WAT    EPW37440   5.163   2.125   5.035  0.0546  0.0907  0.0767
 9184WAT      O37441   4.293   4.648   4.014 -0.0258  0.6709  0.5316
 9184WAT     H137442   4.263   4.604   4.083  1.1136 -0.5571  0.2942
 9184WAT     H237443   4.225   4.696   3.989 -0.9325 -0.0157  1.5734
 9184WAT    EPW37444   4.278   4.649   4.021  0.9041  0.2586 -0.0505
 9185WAT      O37445   1.504   4.450   0.191 -0.2585 -0.0278  0.4756
 9185WAT     H137446   1.588   4.453   0.170 -0.3470 -0.6283  0.0062
 9185WAT     H237447   1.480   4.534   0.195 -0.4355  0.1793 -2.6597
 9185WAT    EPW37448   1.513   4.463   0.189  0.6843  0.8085  0.2015
 9186WAT      O37449   3.407   6.559   2.461  0.5093 -0.5936  0.4741
 9186WAT     H137450   3.371   6.618   2.407  1.3893  0.4536  1.0018
 9186WAT     H237451   3.410   6.487   2.412  1.8429  0.4740 -1.1240
 9186WAT    EPW37452   3.402   6.557   2.446  0.3828  0.4775 -0.0236
 9187WAT      O37453   5.701   2.409  -0.011  0.5966 -0.0369 -0.0540
 9187WAT     H137454   5.673   2.342   0.038  1.4483 -0.7988 -0.5586
 9187WAT     H237455   5.738   2.462   0.047 -0.0001 -0.0484  0.3450
 9187WAT    EPW37456   5.703   2.407   0.005 -0.3329  0.5517  0.1341
 9188WAT      O37457   3.246   5.917   6.329 -0.3530  0.5555 -0.1512
 9188WAT     H137458   3.244   5.944   6.246 -2.0417 -1.9726 -1.0490
 9188WAT     H237459   3.200   5.977   6.372 -2.3334  0.2371 -1.6851
 9188WAT    EPW37460   3.239   5.930   6.323  0.8320  0.7155 -0.3758
 9189WAT      O37461   6.650   6.325   0.965 -0.1091 -0.6740  0.4459
 9189WAT     H137462   6.703   6.291   0.905  2.2080 -1.5417  2.7578
 9189WAT     H237463   6.645   6.263   1.026 -1.5545  0.4729  1.5869
 9189WAT    EPW37464   6.657   6.311   0.965  0.8377 -0.4269  0.2460
 9190WAT      O37465   7.289   2.071   2.835  0.4464  0.1607  0.1572
 9190WAT     H137466   7.227   2.130   2.817  1.0034  0.4850 -0.7739
 9190WAT     H237467   7.363   2.117   2.830  0.9117 -0.6396 -0.8415
 9190WAT    EPW37468   7.291   2.087   2.831  0.2886  0.0375  0.6494
 9191WAT      O37469   1.182   2.949   3.409  0.3525 -0.0642  0.2453
 9191WAT     H137470   1.188   2.891   3.473 -2.6307 -0.8368 -0.0286
 9191WAT     H237471   1.155   2.902   3.341  0.0892  1.2895 -0.6240
 9191WAT    EPW37472   1.179   2.934   3.408  0.5571  0.3219  0.5644
 9192WAT      O37473   4.929   0.722   4.400  0.0992  0.0002 -0.7403
 9192WAT     H137474   4.967   0.665   4.347  0.7759  0.5238 -0.8260
 9192WAT     H237475   4.918   0.793   4.350 -2.5531 -0.6373 -1.2599
 9192WAT    EPW37476   4.933   0.724   4.385 -0.0762 -0.1881 -0.2192
 9193WAT      O37477   4.597   1.987   4.852 -0.1493  0.4551 -0.2678
 9193WAT     H137478   4.571   2.047   4.794 -0.9185  0.1604 -0.2294
 9193WAT     H237479   4.524   1.944   4.872  0.2566  0.0170  0.3052
 9193WAT    EPW37480   4.582   1.990   4.846  0.5018 -0.3378  0.3244
 9194WAT      O37481   5.038   3.371   5.189 -0.6505  0.1027  0.0689
 9194WAT     H137482   5.117   3.339   5.167 -1.4316 -1.7864 -0.1423
 9194WAT     H237483   4.997   3.303   5.224 -1.5342  1.5473  2.0458
 9194WAT    EPW37484   5.044   3.357   5.191 -0.1509  0.6454 -0.6131
 9195WAT      O37485   3.577   5.383   1.238  0.3490 -0.3476 -0.1078
 9195WAT     H137486   3.514   5.325   1.254  0.7004 -0.3505  1.4388
 9195WAT     H237487   3.550   5.424   1.166 -1.5375 -0.1879  0.6366
 9195WAT    EPW37488   3.564   5.380   1.230  0.1391 -0.0524  0.1087
 9196WAT      O37489   2.489   6.296   7.220 -0.1831  0.0945 -0.1237
 9196WAT     H137490   2.572   6.322   7.215  0.1095 -0.7425  0.2005
 9196WAT     H237491   2.469   6.276   7.137 -0.1916  0.6723 -0.2648
 9196WAT    EPW37492   2.498   6.297   7.207 -0.2307 -0.0211  0.6441
 9197WAT      O37493   3.949   6.225   0.264 -0.7785  0.3564  0.2081
 9197WAT     H137494   4.015   6.170   0.250 -1.6434 -0.5218 -0.5205
 9197WAT     H237495   3.984   6.286   0.315  0.4819 -0.3143  0.1791
 9197WAT    EPW37496   3.964   6.226   0.269 -0.0680  0.4114 -0.0053
 9198WAT      O37497   6.653   4.570   7.034 -0.4114 -0.5666  0.1412
 9198WAT     H137498   6.626   4.653   7.033 -1.0367 -0.7602 -1.5719
 9198WAT     H237499   6.737   4.576   7.055 -0.4576  0.4913  0.1016
 9198WAT    EPW37500   6.661   4.583   7.037  0.0735 -0.0888  0.0077
 9199WAT      O37501   4.163   0.725   2.452 -0.5128 -0.4481 -0.1514
 9199WAT     H137502   4.224   0.681   2.496  1.8642  0.7270 -2.1032
 9199WAT     H237503   4.147   0.674   2.383  0.6357  0.6853 -1.2838
 9199WAT    EPW37504   4.170   0.711   2.449  0.0945  0.3731  0.3075
 9200WAT      O37505   7.013   3.980   2.134  0.4622  0.5866  0.4467
 9200WAT     H137506   7.095   3.970   2.105 -0.4199 -1.5462 -1.6798
 9200WAT     H237507   6.971   4.013   2.065 -0.5623  1.3965  1.4173
 9200WAT    EPW37508   7.019   3.984   2.120 -0.0549  0.4012  0.4182
 9201WAT      O37509   3.819   6.030   7.180 -0.5192  0.2547  0.0888
 9201WAT     H137510   3.796   5.980   7.247  2.5713  1.7354  2.5150
 9201WAT     H237511   3.757   6.091   7.178 -0.7670  0.0864  1.5151
 9201WAT    EPW37512   3.807   6.032   7.190  0.0027 -0.0654 -0.1312
 9202WAT      O37513   6.591   3.877   4.986 -0.0832  0.5792  0.5042
 9202WAT     H137514   6.537   3.878   4.917  0.7724  2.9143 -0.2155
 9202WAT     H237515   6.602   3.791   5.001 -2.1379  0.0124 -0.7486
 9202WAT    EPW37516   6.585   3.864   4.978 -0.4188  0.1637 -0.0980
 9203WAT      O37517   2.884   0.901   5.216  0.5731 -0.2231  0.2062
 9203WAT     H137518   2.803   0.879   5.194  0.0895  0.6855  1.0357
 9203WAT     H237519   2.883   0.988   5.212  1.8940 -0.2193 -1.0986
 9203WAT    EPW37520   2.872   0.911   5.212  0.0769 -0.6839 -0.3627
 9204WAT      O37521   1.434   1.064   0.507 -0.2538  0.0857 -0.0081
 9204WAT     H137522   1.365   1.070   0.560 -1.0813  0.7823 -1.1239
 9204WAT     H237523   1.501   1.056   0.562 -1.2986 -2.0423  1.1102
 9204WAT    EPW37524   1.434   1.064   0.523  0.2075  0.2192  0.0018
 9205WAT      O37525   4.501   4.681   0.180  0.4732 -0.0940  0.0505
 9205WAT     H137526   4.426   4.725   0.169  0.4081 -0.2807 -0.2617
 9205WAT     H237527   4.558   4.726   0.132  0.3532 -0.4853 -0.4658
 9205WAT    EPW37528   4.499   4.694   0.171 -0.4555 -0.1405  0.0077
 9206WAT      O37529   0.311   6.724   5.415 -0.2959 -0.0735 -0.0197
 9206WAT     H137530   0.270   6.740   5.491  0.9572 -1.1203  0.9119
 9206WAT     H237531   0.291   6.794   5.366 -1.1175  0.6328  1.2731
 9206WAT    EPW37532   0.302   6.737   5.419  0.9680  0.3746 -0.0089
 9207WAT      O37533   2.815   6.657   4.123  0.0064 -0.3596  0.3084
 9207WAT     H137534   2.752   6.709   4.155 -0.0695  0.0417 -0.4808
 9207WAT     H237535   2.797   6.652   4.038  0.3372 -1.2402  0.2748
 9207WAT    EPW37536   2.803   6.664   4.115  0.2465  0.0077 -0.4183
 9208WAT      O37537   3.999   4.299   0.736 -0.5136  0.1356 -0.3174
 9208WAT     H137538   4.041   4.239   0.783  1.5195  0.7792 -1.1735
 9208WAT     H237539   3.994   4.263   0.657 -1.7042  0.0454 -0.2169
 9208WAT    EPW37540   4.004   4.285   0.731 -0.3602  0.2060 -0.7037
 9209WAT      O37541   1.522   1.046   4.887 -0.5357 -0.0811  0.2347
 9209WAT     H137542   1.542   1.128   4.909  0.3850 -0.5975  1.3840
 9209WAT     H237543   1.449   1.030   4.933 -1.6251  0.5671 -1.1660
 9209WAT    EPW37544   1.514   1.056   4.897 -0.1295 -0.6774 -0.0573
 9210WAT      O37545   5.419   0.035   5.499  0.6827  0.1529 -0.1420
 9210WAT     H137546   5.358   0.041   5.436  0.4262  1.8821  0.2130
 9210WAT     H237547   5.374   0.048   5.572  1.4420  1.5283  0.1194
 9210WAT    EPW37548   5.403   0.038   5.500  0.7547 -0.0792 -0.3063
 9211WAT      O37549   4.315   7.082   1.606 -0.3224  0.0014 -0.7246
 9211WAT     H137550   4.287   7.004   1.634 -3.5717  1.6623  1.2584
 9211WAT     H237551   4.275   7.092   1.530  0.4844 -0.4120 -1.2168
 9211WAT    EPW37552   4.305   7.072   1.599 -0.3917  0.6971 -0.4236
 9212WAT      O37553   4.976   6.632   3.749  0.2426 -0.3290 -0.4868
 9212WAT     H137554   4.934   6.653   3.676  0.6891 -0.1555 -0.6971
 9212WAT     H237555   4.941   6.555   3.772  0.1998 -0.4506 -0.9626
 9212WAT    EPW37556   4.965   6.624   3.742 -0.3039  0.2541 -0.2146
 9213WAT      O37557   2.547   5.429   7.346  0.7123 -0.0437  0.0109
 9213WAT     H137558   2.572   5.382   7.277  0.2851 -0.3514  0.0641
 9213WAT     H237559   2.577   5.384   7.414 -1.0860 -1.1284  0.1442
 9213WAT    EPW37560   2.555   5.415   7.346 -0.1614 -0.4814 -0.0313
 9214WAT      O37561   0.127   5.203   2.179  0.9444  1.0625  0.3223
 9214WAT     H137562   0.168   5.126   2.181  0.8003  0.9987  0.9384
 9214WAT     H237563   0.099   5.214   2.261 -1.2907  0.5612 -0.2969
 9214WAT    EPW37564   0.129   5.193   2.192 -0.3532  0.3140 -0.3109
 9215WAT      O37565   5.566   4.251   6.736 -0.1480  0.2380 -0.0945
 9215WAT     H137566   5.637   4.246   6.685 -0.4191 -0.6623 -0.4110
 9215WAT     H237567   5.597   4.283   6.811  0.5117  0.2796 -0.3758
 9215WAT    EPW37568   5.581   4.255   6.739 -0.2013 -0.4234 -0.1531
 9216WAT      O37569   1.479   2.320   7.070  0.1552 -0.4299  0.1239
 9216WAT     H137570   1.541   2.372   7.102 -0.5549  0.8563 -0.4630
 9216WAT     H237571   1.470   2.258   7.131 -1.1361  1.8820  2.5053
 9216WAT    EPW37572   1.487   2.319   7.084  0.0329  0.3944  0.1220
 9217WAT      O37573   4.653   5.450   4.347 -0.2035  0.2598 -0.4219
 9217WAT     H137574   4.632   5.395   4.283  1.1705  0.0062 -0.6894
 9217WAT     H237575   4.705   5.402   4.398 -0.3046  0.8258  0.2229
 9217WAT    EPW37576   4.657   5.435   4.345 -0.2593  0.4558  0.2176
 9218WAT      O37577   6.303   3.309   3.554 -0.4904  0.3154 -0.0537
 9218WAT     H137578   6.308   3.227   3.584 -0.3204  0.8972  1.5727
 9218WAT     H237579   6.353   3.308   3.482  0.8783 -0.6050  0.8710
 9218WAT    EPW37580   6.311   3.297   3.548  0.4217  0.0651  0.0297
 9219WAT      O37581   7.478   2.338   2.771  0.2577 -0.0537  0.0975
 9219WAT     H137582   7.511   2.258   2.783  0.3921 -0.3929 -2.1242
 9219WAT     H237583   7.490   2.353   2.686 -1.5166  1.5507  0.0580
 9219WAT    EPW37584   7.484   2.328   2.760 -0.5203 -0.3922  0.0428
 9220WAT      O37585   2.650   3.533   0.984  0.1678 -0.2231  0.4040
 9220WAT     H137586   2.604   3.489   0.924  0.1210  1.4852 -0.8993
 9220WAT     H237587   2.705   3.580   0.935 -1.5458  3.1722  1.4807
 9220WAT    EPW37588   2.651   3.533   0.968 -0.0044  0.1464 -0.7976
 9221WAT      O37589   3.525   1.164   0.005  0.6683 -0.6636  0.2142
 9221WAT     H137590   3.440   1.155  -0.012  0.8041 -0.4709 -0.5569
 9221WAT     H237591   3.527   1.170   0.092 -0.2305  0.7434  0.1603
 9221WAT    EPW37592   3.513   1.163   0.016 -0.4236 -0.0634  0.0638
 9222WAT      O37593   0.658   6.709   6.393 -0.4178 -0.4700 -0.3151
 9222WAT     H137594   0.610   6.732   6.324  1.5634  0.0509 -1.6177
 9222WAT     H237595   0.621   6.635   6.421 -1.2372 -0.7413 -2.0082
 9222WAT    EPW37596   0.646   6.701   6.387 -0.2185  0.3661  1.1827
 9223WAT      O37597   3.796   3.576   6.559  0.1270  0.4839 -0.9750
 9223WAT     H137598   3.863   3.544   6.512 -0.5691  0.8110 -2.2296
 9223WAT     H237599   3.774   3.649   6.517 -0.7398  0.6159 -0.3203
 9223WAT    EPW37600   3.803   3.582   6.546 -0.1155 -0.4046 -0.1629
 9224WAT      O37601   1.649   1.788   2.289  0.2329  0.6236 -0.5077
 9224WAT     H137602   1.707   1.854   2.298 -2.9720  3.5119  1.8294
 9224WAT     H237603   1.665   1.738   2.359 -1.1957  2.6101  1.3976
 9224WAT    EPW37604   1.660   1.791   2.301  0.0919  0.3235 -0.5541
 9225WAT      O37605   0.563   1.696   0.058  0.3073 -0.3586  0.5905
 9225WAT     H137606   0.640   1.718   0.023 -0.4956  1.8725  0.0023
 9225WAT     H237607   0.549   1.760   0.116 -2.4786  1.2477 -1.5848
 9225WAT    EPW37608   0.572   1.709   0.061  0.6166  0.2325 -0.1707
 9226WAT      O37609   7.401   0.965   0.763 -0.0313 -0.2505 -0.0917
 9226WAT     H137610   7.377   1.049   0.768  1.0139  0.0537  0.1143
 9226WAT     H237611   7.464   0.958   0.823 -1.2805 -1.6374  1.1514
 9226WAT    EPW37612   7.407   0.976   0.772 -0.3222  0.1200  0.0410
 9227WAT      O37613   1.209   0.114   0.048  0.2272  0.7762 -0.1215
 9227WAT     H137614   1.186   0.190   0.086  0.5604  0.0435  1.6553
 9227WAT     H237615   1.136   0.088   0.009  0.1658  2.1012 -0.9341
 9227WAT    EPW37616   1.195   0.122   0.048 -0.5257  0.4221 -0.2644
 9228WAT      O37617   4.778   1.819   1.709 -0.0405 -0.4243 -0.7732
 9228WAT     H137618   4.788   1.879   1.772 -1.6510 -1.1960  0.2840
 9228WAT     H237619   4.697   1.831   1.681 -0.6082 -2.3968 -0.1563
 9228WAT    EPW37620   4.768   1.830   1.714 -0.1308 -0.2016 -0.1446
 9229WAT      O37621   5.670   2.372   4.058  0.3520  0.2170 -0.4203
 9229WAT     H137622   5.644   2.429   4.118 -0.6560 -0.8291  0.1898
 9229WAT     H237623   5.652   2.411   3.982 -1.0238  0.4290 -0.0145
 9229WAT    EPW37624   5.664   2.386   4.056  0.2367  0.2383  0.2575
 9230WAT      O37625   7.579   3.910   0.217  0.0908 -0.3567 -0.2220
 9230WAT     H137626   7.648   3.932   0.167  0.6188 -0.1737  0.5676
 9230WAT     H237627   7.542   3.845   0.172  0.2415  0.1598 -1.1173
 9230WAT    EPW37628   7.584   3.904   0.203 -0.2803  0.4076 -0.3686
 9231WAT      O37629   5.467   4.693   5.698 -0.3071 -0.0020 -0.2616
 9231WAT     H137630   5.506   4.761   5.660 -0.3959  1.0324  1.3995
 9231WAT     H237631   5.526   4.663   5.754 -0.6627 -0.6398 -0.2083
 9231WAT    EPW37632   5.481   4.699   5.701 -0.2884  0.7139  0.3632
 9232WAT      O37633   4.948   2.661   5.861 -0.1158  0.3032 -0.1266
 9232WAT     H137634   4.891   2.667   5.795  0.2940  0.1436 -0.4999
 9232WAT     H237635   4.929   2.583   5.897  1.5007 -0.9716 -1.8210
 9232WAT    EPW37636   4.936   2.650   5.857 -0.8916 -0.0238 -0.0367
 9233WAT      O37637   1.785   3.690   3.950 -0.3612 -0.7412  1.1786
 9233WAT     H137638   1.796   3.702   3.864 -2.9801 -0.8139  0.7391
 9233WAT     H237639   1.849   3.737   3.986  0.4256 -0.1966 -0.7927
 9233WAT    EPW37640   1.796   3.699   3.942  0.6152 -0.4074  0.0994
 9234WAT      O37641   4.647   0.943   6.805 -0.5985 -0.4067 -0.1347
 9234WAT     H137642   4.582   0.948   6.863 -0.4537  0.3751 -0.0212
 9234WAT     H237643   4.608   0.961   6.729 -0.5629 -0.1783 -0.1003
 9234WAT    EPW37644   4.632   0.946   6.802  0.4457  0.1149  0.4822
 9235WAT      O37645   3.401   6.302   6.757  0.0099 -0.3874 -0.1198
 9235WAT     H137646   3.477   6.309   6.715  0.2422 -0.8528  0.2051
 9235WAT     H237647   3.390   6.380   6.794 -0.8700  0.5118 -2.1223
 9235WAT    EPW37648   3.411   6.314   6.756 -0.3383  0.3043 -0.1539
 9236WAT      O37649   0.832   1.298   0.626  0.3185  0.3519  0.1407
 9236WAT     H137650   0.825   1.279   0.541 -0.5957 -2.2929  0.7037
 9236WAT     H237651   0.758   1.341   0.644  0.2019  0.3374 -0.3028
 9236WAT    EPW37652   0.820   1.301   0.616  0.2070 -0.0937 -0.4408
 9237WAT      O37653   5.925   3.762   3.238 -0.0378  0.0542 -0.1162
 9237WAT     H137654   5.855   3.812   3.223 -0.1518  0.4741  1.5820
 9237WAT     H237655   5.971   3.768   3.164 -0.2522  2.3700 -0.1376
 9237WAT    EPW37656   5.922   3.771   3.225 -0.4288 -0.2618  0.2330
 9238WAT      O37657   3.229   0.905   6.115  0.1148 -0.3472  0.3338
 9238WAT     H137658   3.219   0.933   6.033  1.2244 -0.1450  0.2531
 9238WAT     H237659   3.251   0.822   6.105  1.5678  0.0144  0.3476
 9238WAT    EPW37660   3.231   0.897   6.101 -0.5638  0.0984 -0.4004
 9239WAT      O37661   7.474   4.412   1.351 -0.7821 -0.5278  0.0131
 9239WAT     H137662   7.499   4.430   1.433  1.1873 -0.9719 -0.4363
 9239WAT     H237663   7.430   4.483   1.327  0.4853  0.5571  0.7364
 9239WAT    EPW37664   7.471   4.425   1.360 -0.2966  0.8334  0.1761
 9240WAT      O37665   0.244   0.741   4.002  0.0867  0.4719 -0.4894
 9240WAT     H137666   0.225   0.706   3.924 -0.6871  0.0540 -0.1279
 9240WAT     H237667   0.196   0.813   4.005  1.3306  1.3612 -1.0404
 9240WAT    EPW37668   0.234   0.746   3.991 -0.6678 -0.0897  0.1534
 9241WAT      O37669   4.134   6.095   4.734  0.7404  0.2089 -0.2545
 9241WAT     H137670   4.123   6.129   4.654 -2.5791  0.0106 -0.0108
 9241WAT     H237671   4.192   6.148   4.771  2.1393  0.5151 -2.6330
 9241WAT    EPW37672   4.141   6.108   4.728  0.0875  0.0964 -0.0422
 9242WAT      O37673   1.045   3.772   5.371  0.2988 -0.0854  0.1776
 9242WAT     H137674   1.083   3.702   5.404 -1.3970 -1.3303 -0.3752
 9242WAT     H237675   0.993   3.800   5.435  1.1367  0.8301  0.4787
 9242WAT    EPW37676   1.043   3.766   5.385 -0.2598 -0.1502 -0.5343
 9243WAT      O37677   6.161   5.603   7.412 -0.9455 -0.1647  0.2579
 9243WAT     H137678   6.164   5.597   7.499 -0.7631 -0.8117  0.2139
 9243WAT     H237679   6.233   5.647   7.391  0.3193 -2.0750  0.2902
 9243WAT    EPW37680   6.172   5.608   7.421  0.3420 -0.1784 -0.3842
 9244WAT      O37681   3.072   5.096   5.811  0.0178  0.1755 -0.3266
 9244WAT     H137682   3.147   5.139   5.809 -0.5219  1.4091  2.1559
 9244WAT     H237683   3.026   5.131   5.745  1.3328 -0.1783 -1.4863
 9244WAT    EPW37684   3.076   5.107   5.801  0.2833 -0.1892  0.1743
 9245WAT      O37685   0.224   1.882   6.792  0.5127  0.1126 -0.2273
 9245WAT     H137686   0.231   1.805   6.752 -2.2756 -0.5518  0.3440
 9245WAT     H237687   0.159   1.869   6.849  0.5878  2.6480  0.5405
 9245WAT    EPW37688   0.216   1.868   6.794  0.3540 -0.0815  0.7396
 9246WAT      O37689   5.416   7.040   5.241 -0.1272  0.5816 -0.6546
 9246WAT     H137690   5.407   7.110   5.292  0.9549  0.4815 -0.2821
 9246WAT     H237691   5.417   7.073   5.161  0.5419  1.0368 -0.4724
 9246WAT    EPW37692   5.415   7.055   5.237 -0.1222  0.3206 -0.5591
 9247WAT      O37693   0.545   6.631   2.990  0.2327  0.0171  0.9402
 9247WAT     H137694   0.581   6.621   3.069  2.0831  0.8152  0.2621
 9247WAT     H237695   0.569   6.712   2.967 -0.1708 -0.2392 -0.4705
 9247WAT    EPW37696   0.554   6.642   2.999  0.2902  0.0876  0.6535
 9248WAT      O37697   6.195   6.130   5.484 -0.4564 -0.2988  0.1016
 9248WAT     H137698   6.185   6.055   5.441 -0.4764 -1.1517  1.4960
 9248WAT     H237699   6.256   6.111   5.544 -0.6788  0.7154  0.6791
 9248WAT    EPW37700   6.203   6.116   5.487 -0.1837 -0.1076 -0.3366
 9249WAT      O37701   3.149   7.461   7.039  0.5470  0.3796 -0.6277
 9249WAT     H137702   3.137   7.431   6.958 -0.7415  0.3593 -0.4635
 9249WAT     H237703   3.123   7.395   7.090 -0.4945  1.0439 -0.2431
 9249WAT    EPW37704   3.143   7.447   7.035 -0.2097 -0.3421  0.1158
 9250WAT      O37705   3.457   0.598   4.234  0.3988 -0.0427 -0.4648
 9250WAT     H137706   3.451   0.524   4.189  0.8764  0.6730 -1.7590
 9250WAT     H237707   3.536   0.593   4.272  0.5912 -0.0284 -0.8610
 9250WAT    EPW37708   3.468   0.586   4.233 -0.0329 -0.2537 -0.1845
 9251WAT      O37709   4.393   0.676   7.164  0.1488  0.0061  0.2740
 9251WAT     H137710   4.377   0.676   7.078  0.4240 -1.2310  0.1960
 9251WAT     H237711   4.379   0.758   7.188 -0.7996  0.1809 -0.8008
 9251WAT    EPW37712   4.389   0.688   7.155 -0.0451  0.3916  0.3334
 9252WAT      O37713   1.928   0.558   0.834  0.1045 -0.0747 -0.2385
 9252WAT     H137714   1.858   0.565   0.782 -0.9933  0.8949  1.2796
 9252WAT     H237715   1.899   0.510   0.901  0.6284  1.0121  0.8061
 9252WAT    EPW37716   1.914   0.552   0.837 -0.7406 -0.2512  0.3250
 9253WAT      O37717   7.589   4.094   3.740  0.2084  0.0398 -0.0716
 9253WAT     H137718   7.646   4.029   3.750  0.2962  0.0124 -0.7096
 9253WAT     H237719   7.512   4.053   3.738 -0.0103  0.1963  2.3104
 9253WAT    EPW37720   7.586   4.078   3.741 -0.2038 -0.0300  0.2353
 9254WAT      O37721   7.621   6.573   1.323  0.7862  0.1792 -0.8844
 9254WAT     H137722   7.601   6.493   1.352  3.5724 -0.1494  0.4997
 9254WAT     H237723   7.689   6.558   1.269  2.2012  1.6291  0.3900
 9254WAT    EPW37724   7.628   6.559   1.319 -0.5756 -0.1530 -0.7058
 9255WAT      O37725   2.825   3.269   3.400 -0.1537 -0.2237  0.0150
 9255WAT     H137726   2.866   3.331   3.445  0.1756 -1.4104  1.4416
 9255WAT     H237727   2.887   3.209   3.387 -0.2202  0.1219 -2.1771
 9255WAT    EPW37728   2.840   3.269   3.405  0.2963 -0.8276  0.0855
 9256WAT      O37729   5.891   6.425   3.862  0.3157  0.3595  0.1273
 9256WAT     H137730   5.834   6.414   3.797 -0.8570  1.5487  0.8990
 9256WAT     H237731   5.909   6.510   3.859 -0.3572  0.5988  1.7828
 9256WAT    EPW37732   5.885   6.436   3.852  0.1611  0.3725 -0.5892
 9257WAT      O37733   6.226   5.544   4.857  0.6361 -0.5354 -0.2020
 9257WAT     H137734   6.181   5.470   4.861 -2.0540  1.0390  1.2431
 9257WAT     H237735   6.195   5.584   4.786 -0.0344  0.3755  0.5685
 9257WAT    EPW37736   6.215   5.539   4.847 -0.1972  0.2675 -0.5737
 9258WAT      O37737   4.634   6.567   1.215 -0.3756 -0.0020  0.0994
 9258WAT     H137738   4.585   6.606   1.154 -0.1382 -1.9950 -1.4859
 9258WAT     H237739   4.617   6.482   1.204  1.8535 -0.6226  0.8827
 9258WAT    EPW37740   4.624   6.560   1.204  0.9158 -0.4080  0.0212
 9259WAT      O37741   7.028   3.503   1.157  0.1443  0.4785 -0.4408
 9259WAT     H137742   7.068   3.516   1.081 -1.3481  0.2917 -1.2944
 9259WAT     H237743   6.955   3.550   1.150  0.3470  1.1239  1.2265
 9259WAT    EPW37744   7.023   3.512   1.145  0.0690  0.6571  0.5604
 9260WAT      O37745   3.404   5.656   4.024  0.0821  0.4354  0.0574
 9260WAT     H137746   3.386   5.613   4.098  1.3495 -1.3335 -0.5815
 9260WAT     H237747   3.334   5.707   4.012 -0.1239  0.7994  2.4685
 9260WAT    EPW37748   3.391   5.657   4.033  0.3222 -0.3224  0.3878
 9261WAT      O37749   3.204   3.812   6.555 -0.2481 -0.1372  0.7139
 9261WAT     H137750   3.223   3.765   6.626  1.8368 -1.3575 -0.5378
 9261WAT     H237751   3.118   3.824   6.560 -0.1655 -0.0284  3.4868
 9261WAT    EPW37752   3.194   3.807   6.567 -0.0391  0.8118  0.4871
 9262WAT      O37753   6.701   5.666   4.192 -0.4645  0.1988 -0.5315
 9262WAT     H137754   6.648   5.733   4.207 -0.1677  0.4693 -0.6739
 9262WAT     H237755   6.722   5.638   4.272  0.0859  0.8176 -0.4510
 9262WAT    EPW37756   6.696   5.672   4.206 -0.2663  0.3569 -0.0660
 9263WAT      O37757   2.617   3.180   1.003  0.2372  0.1487  0.0418
 9263WAT     H137758   2.602   3.107   0.959 -1.1370 -0.4748  1.4428
 9263WAT     H237759   2.657   3.231   0.945 -0.2715 -1.0984 -1.4781
 9263WAT    EPW37760   2.621   3.177   0.988 -0.4550 -0.3173 -0.0446
 9264WAT      O37761   6.339   7.025   6.490  0.2106  0.6071 -0.4287
 9264WAT     H137762   6.284   7.089   6.512  0.5995  1.2265 -1.1929
 9264WAT     H237763   6.412   7.068   6.468  0.2620 -0.0441 -1.5930
 9264WAT    EPW37764   6.342   7.041   6.490  0.5040  0.0873 -0.3922
 9265WAT      O37765   7.128   6.951   7.478  0.5041  0.1829  0.6801
 9265WAT     H137766   7.137   6.923   7.396  1.2531  1.5771  0.2600
 9265WAT     H237767   7.195   6.913   7.520 -0.1679 -0.9250  0.7700
 9265WAT    EPW37768   7.139   6.941   7.472 -0.3148  0.5896 -0.1397
 9266WAT      O37769   0.282   6.311   0.670  0.9723 -0.1210  0.1743
 9266WAT     H137770   0.335   6.242   0.674  1.8751  0.5854  0.7664
 9266WAT     H237771   0.250   6.308   0.589  1.3920 -0.9402  0.0300
 9266WAT    EPW37772   0.285   6.300   0.658 -0.5620 -0.5015 -0.1036
 9267WAT      O37773   3.178   2.405   1.539  0.1297 -0.0477  0.2648
 9267WAT     H137774   3.254   2.432   1.508 -0.0781  1.6542  1.1399
 9267WAT     H237775   3.165   2.454   1.610  0.0709 -3.0197  2.4886
 9267WAT    EPW37776   3.187   2.416   1.545  0.0149  0.1855 -0.0786
 9268WAT      O37777   4.284   6.583   4.795 -0.3107  0.6768  0.2323
 9268WAT     H137778   4.252   6.636   4.857 -1.0606 -0.1486  0.5721
 9268WAT     H237779   4.305   6.511   4.839  1.6484  1.0199 -0.0611
 9268WAT    EPW37780   4.282   6.580   4.811  0.0234  0.5766 -0.2026
 9269WAT      O37781   4.591   7.248   5.714 -0.7354 -0.5515  0.4087
 9269WAT     H137782   4.667   7.219   5.682  0.0147  0.0287  1.5926
 9269WAT     H237783   4.534   7.231   5.650  0.2543 -1.6520 -0.2241
 9269WAT    EPW37784   4.594   7.241   5.700 -0.0984 -0.1657  0.4645
 9270WAT      O37785   2.896   1.007   7.186  0.6648  0.1518  0.7452
 9270WAT     H137786   2.872   1.002   7.270  2.3803 -3.5678  1.1742
 9270WAT     H237787   2.983   1.020   7.190  0.8830 -0.8158 -0.4201
 9270WAT    EPW37788   2.905   1.008   7.199  0.6866  0.1243 -0.7001
 9271WAT      O37789   1.867   6.261   2.048  0.1806  0.3316  0.2471
 9271WAT     H137790   1.800   6.207   2.062 -0.3382  0.5511 -1.2367
 9271WAT     H237791   1.925   6.211   2.006  0.5920  0.3837  0.7414
 9271WAT    EPW37792   1.866   6.245   2.044 -0.2248 -0.9765 -0.0202
 9272WAT      O37793   7.383   3.971   7.325 -0.0713 -0.0628  0.0301
 9272WAT     H137794   7.417   3.951   7.247 -0.9845  0.0738 -0.4095
 9272WAT     H237795   7.451   4.004   7.369  0.5636 -0.6039 -0.5332
 9272WAT    EPW37796   7.398   3.973   7.320 -0.6228 -0.0880  0.0219
 9273WAT      O37797   3.774   3.961   0.211  0.3100 -0.1321  0.5796
 9273WAT     H137798   3.704   3.967   0.160  1.8933 -1.6528 -2.0582
 9273WAT     H237799   3.831   4.017   0.175  1.4456 -1.1573  0.6783
 9273WAT    EPW37800   3.772   3.970   0.198  0.4123 -0.4390 -0.5156
 9274WAT      O37801   7.090   3.618   4.274  0.0874 -0.3547  0.3478
 9274WAT     H137802   7.047   3.585   4.205 -0.4703  0.2870  0.3737
 9274WAT     H237803   7.174   3.610   4.252 -0.0818 -0.3490 -0.3208
 9274WAT    EPW37804   7.096   3.612   4.260 -0.6438  0.3158 -0.2982
 9275WAT      O37805   2.383   6.744   1.810  0.2612  0.6757 -0.1726
 9275WAT     H137806   2.375   6.661   1.838 -0.0075  0.2069 -1.5433
 9275WAT     H237807   2.306   6.759   1.771  0.1492  1.7366  0.4207
 9275WAT    EPW37808   2.370   6.734   1.809 -0.2604  0.5504  0.5210
 9276WAT      O37809   1.624   4.675   4.411 -0.2016  0.6897  0.2826
 9276WAT     H137810   1.584   4.707   4.340  2.1406 -0.5072 -1.7645
 9276WAT     H237811   1.593   4.593   4.416  0.2489  0.4981  0.0672
 9276WAT    EPW37812   1.614   4.668   4.401 -0.5526 -0.0231 -0.1662
 9277WAT      O37813   5.222   1.354   5.716 -0.4652  0.6209 -0.0513
 9277WAT     H137814   5.205   1.274   5.747  2.0432  0.4372  1.1045
 9277WAT     H237815   5.302   1.346   5.681 -2.1748  1.3367 -4.9638
 9277WAT    EPW37816   5.231   1.341   5.715 -0.0632 -0.0325 -0.3010
 9278WAT      O37817   7.067   6.073   2.800  0.4902  0.2928  0.0428
 9278WAT     H137818   7.042   6.002   2.755  1.1120 -0.6586  1.1231
 9278WAT     H237819   7.000   6.087   2.854  0.8222 -0.1580  0.5823
 9278WAT    EPW37820   7.053   6.064   2.801 -0.6850 -0.4387 -0.3154
 9279WAT      O37821   2.019   1.792   6.429 -0.1040  0.2498 -0.2380
 9279WAT     H137822   2.017   1.848   6.495  3.5046 -0.5831  0.7849
 9279WAT     H237823   1.986   1.839   6.362 -0.1782  2.4562  1.2253
 9279WAT    EPW37824   2.014   1.807   6.429  0.8742  0.5302 -0.2958
 9280WAT      O37825   7.392   4.616   3.712 -0.5814 -0.2060  0.0412
 9280WAT     H137826   7.407   4.577   3.635  0.4093  0.6983 -0.2563
 9280WAT     H237827   7.438   4.690   3.706  0.9628 -0.8752  2.1569
 9280WAT    EPW37828   7.401   4.621   3.699 -0.0030  0.0315  0.4148
 9281WAT      O37829   0.394   5.126   3.858 -0.3198  0.3967 -0.0913
 9281WAT     H137830   0.401   5.130   3.945 -0.3115 -0.9579  0.0010
 9281WAT     H237831   0.337   5.189   3.839  0.4558  1.3917  0.7743
 9281WAT    EPW37832   0.386   5.136   3.868 -0.4882 -0.5142  0.5502
 9282WAT      O37833   0.166   5.549   3.091  0.4596  0.3269  0.2571
 9282WAT     H137834   0.188   5.558   3.175  1.4554  0.8094 -0.0423
 9282WAT     H237835   0.222   5.601   3.049 -0.6095  0.8010 -0.6374
 9282WAT    EPW37836   0.178   5.558   3.097 -0.1141 -0.0680 -0.0702
 9283WAT      O37837   2.598   6.845   5.316  0.0861  0.3200 -0.0974
 9283WAT     H137838   2.524   6.868   5.356 -0.8698  0.5835 -1.8964
 9283WAT     H237839   2.595   6.890   5.241  2.7686  1.4061  0.3702
 9283WAT    EPW37840   2.586   6.855   5.311  0.0955 -0.8252  0.0816
 9284WAT      O37841   4.866   5.852   3.610  0.4173 -0.5761 -0.3779
 9284WAT     H137842   4.938   5.808   3.588  2.0542  1.4547  0.5999
 9284WAT     H237843   4.818   5.851   3.537  1.6672 -1.5319 -1.2289
 9284WAT    EPW37844   4.869   5.845   3.596  0.0381 -0.0249  0.4087
 9285WAT      O37845   4.886   0.465   3.582 -0.1540  0.0530  0.5501
 9285WAT     H137846   4.831   0.517   3.625 -0.6667  1.0377 -1.2167
 9285WAT     H237847   4.951   0.518   3.558 -1.3859  0.3796 -2.5715
 9285WAT    EPW37848   4.887   0.480   3.585  0.2485 -0.0273 -0.4031
 9286WAT      O37849   1.500   1.564   7.343  0.2155 -0.0974 -0.0008
 9286WAT     H137850   1.553   1.567   7.274  0.3820 -0.1176  0.1278
 9286WAT     H237851   1.483   1.479   7.351  1.0558 -0.2134  0.6451
 9286WAT    EPW37852   1.505   1.552   7.334  0.1905  0.2287  0.5280
 9287WAT      O37853   2.334   0.755   0.165 -0.1515 -0.7809 -0.1964
 9287WAT     H137854   2.401   0.701   0.152 -0.1230 -0.6493 -0.6193
 9287WAT     H237855   2.364   0.833   0.140  0.5707 -0.0830  2.5491
 9287WAT    EPW37856   2.348   0.759   0.159 -0.1916 -0.0732  0.6644
 9288WAT      O37857   6.895   0.569   5.635 -0.5261 -0.0706  0.3672
 9288WAT     H137858   6.884   0.588   5.720  0.1026  2.3269 -0.0095
 9288WAT     H237859   6.981   0.557   5.628  0.1113  3.6968 -0.4868
 9288WAT    EPW37860   6.906   0.570   5.647  0.1063  0.1448  0.1678
 9289WAT      O37861   5.592   1.399   3.587 -0.6772 -0.1250  0.0130
 9289WAT     H137862   5.613   1.390   3.671 -1.6094 -0.6918  0.2092
 9289WAT     H237863   5.517   1.355   3.580 -0.4144 -0.4300 -1.2071
 9289WAT    EPW37864   5.584   1.391   3.598 -0.3389 -0.0658 -0.0949
 9290WAT      O37865   5.411   7.375   6.017 -0.4065  0.2648  0.5640
 9290WAT     H137866   5.389   7.322   5.952  1.0042  0.5109 -0.1356
 9290WAT     H237867   5.344   7.430   6.021 -0.1462  0.7917 -1.2865
 9290WAT    EPW37868   5.398   7.375   6.008 -0.4008  0.1807 -0.4203
 9291WAT      O37869   1.945   3.736   5.605  0.2412 -0.4126  0.1873
 9291WAT     H137870   1.957   3.710   5.688 -1.7779  0.8880  0.9486
 9291WAT     H237871   1.979   3.816   5.604 -2.7103  0.9793  0.7992
 9291WAT    EPW37872   1.952   3.744   5.617 -0.1918  0.2279 -0.0360
 9292WAT      O37873   7.612   1.561   2.120 -0.3240  0.0126  0.5497
 9292WAT     H137874   7.655   1.625   2.079 -1.0400  0.7849  0.9658
 9292WAT     H237875   7.671   1.498   2.127  0.1900  0.3471 -0.5211
 9292WAT    EPW37876   7.627   1.561   2.115  0.7830 -0.0593  0.0768
 9293WAT      O37877   4.703   4.050   2.202  0.2516 -0.2941 -0.1629
 9293WAT     H137878   4.678   4.125   2.238 -1.4619 -0.4895 -0.8340
 9293WAT     H237879   4.752   4.012   2.264  1.6249  1.5636 -0.0071
 9293WAT    EPW37880   4.707   4.055   2.216  0.2596 -0.2990  0.2235
 9294WAT      O37881   4.811   0.179   7.365  0.0862 -0.1594 -0.6100
 9294WAT     H137882   4.795   0.220   7.290 -0.8636 -0.7115 -0.7340
 9294WAT     H237883   4.758   0.109   7.361  0.2026 -0.3231  0.4589
 9294WAT    EPW37884   4.801   0.175   7.353  0.0446  0.3650 -0.7945
 9295WAT      O37885   7.463   3.688   0.116  0.9616 -0.2714  0.1311
 9295WAT     H137886   7.387   3.675   0.158  0.4127 -2.0576 -1.2704
 9295WAT     H237887   7.439   3.700   0.033  2.1229  1.3695 -0.0231
 9295WAT    EPW37888   7.448   3.688   0.110  0.2426  0.1029  0.1554
 9296WAT      O37889   3.067   5.669   6.336  0.2359 -0.5213  0.6687
 9296WAT     H137890   3.072   5.622   6.410  2.4160 -1.7326 -0.1372
 9296WAT     H237891   3.127   5.731   6.348 -0.3839  0.1327  0.4398
 9296WAT    EPW37892   3.077   5.671   6.349 -0.2488  0.2286 -0.3474
 9297WAT      O37893   2.949   5.766   5.681  0.0172  0.3490 -0.6642
 9297WAT     H137894   2.962   5.713   5.612  1.2120  1.8244 -1.6258
 9297WAT     H237895   3.028   5.771   5.718 -0.7142 -0.8868  1.2467
 9297WAT    EPW37896   2.962   5.759   5.676  0.5400  0.9658 -0.3288
 9298WAT      O37897   5.731   3.057   4.750 -0.2907  0.4336  0.1612
 9298WAT     H137898   5.678   3.056   4.819  0.1154  0.2496  0.4736
 9298WAT     H237899   5.717   3.136   4.714 -1.9629 -0.2076 -0.6959
 9298WAT    EPW37900   5.721   3.069   4.755 -0.6650  0.2294 -0.2078
 9299WAT      O37901   4.276   3.720   7.199  0.4112 -0.4894  0.1864
 9299WAT     H137902   4.264   3.702   7.114  0.3789 -1.5080  0.3934
 9299WAT     H237903   4.286   3.807   7.200 -1.3275 -0.2338 -0.6695
 9299WAT    EPW37904   4.276   3.730   7.187 -0.1039 -0.0526  0.0707
 9300WAT      O37905   5.533   4.763   2.303  0.1966 -0.3766  0.1014
 9300WAT     H137906   5.592   4.726   2.250  0.7266  0.5714  0.0205
 9300WAT     H237907   5.578   4.826   2.343 -0.8377  0.5612 -0.1861
 9300WAT    EPW37908   5.549   4.767   2.301  0.1179 -0.4900  0.7299
 9301WAT      O37909   7.475   1.587   6.822 -0.5442 -0.2474 -0.2380
 9301WAT     H137910   7.523   1.660   6.829 -0.0833 -0.4537 -1.0785
 9301WAT     H237911   7.406   1.612   6.776 -2.1489  0.4436  2.3393
 9301WAT    EPW37912   7.472   1.601   6.816  0.3168 -0.2919 -0.2653
 9302WAT      O37913   3.670   2.686   6.853  0.4708 -0.9861 -0.0060
 9302WAT     H137914   3.735   2.692   6.795 -0.2745 -2.0460 -0.9995
 9302WAT     H237915   3.616   2.628   6.816 -2.0999  1.4009 -0.3006
 9302WAT    EPW37916   3.672   2.679   6.839 -0.6062  0.4359 -0.2437
 9303WAT      O37917   5.824   3.535   6.517 -0.0201 -0.5109 -0.2505
 9303WAT     H137918   5.846   3.560   6.597 -1.7059 -1.5478  0.5972
 9303WAT     H237919   5.880   3.470   6.500 -0.7357 -1.4448  0.8302
 9303WAT    EPW37920   5.836   3.529   6.526  0.4077 -0.6841  0.8480
 9304WAT      O37921   4.805   4.145   6.680  0.7413 -0.5241  0.0660
 9304WAT     H137922   4.757   4.081   6.645  0.2978  0.9902 -2.3203
 9304WAT     H237923   4.788   4.139   6.765 -0.7409 -2.3913 -0.3064
 9304WAT    EPW37924   4.795   4.135   6.687 -0.1972 -0.2202  0.1652
 9305WAT      O37925   1.618   1.369   1.480 -0.5307 -0.0325  0.4254
 9305WAT     H137926   1.570   1.412   1.421  0.2440 -0.3286 -0.4448
 9305WAT     H237927   1.573   1.296   1.494 -0.9074  0.2097  0.4880
 9305WAT    EPW37928   1.605   1.365   1.473  0.1638 -0.1615  0.2367
 9306WAT      O37929   6.006   7.427   4.145  0.2862 -0.0803  0.1057
 9306WAT     H137930   6.083   7.469   4.145  0.3195 -0.0276 -1.9919
 9306WAT     H237931   6.024   7.353   4.187  1.4749 -0.0486 -0.2906
 9306WAT    EPW37932   6.020   7.423   4.151 -0.2894  0.4016  0.5326
 9307WAT      O37933   1.941   5.131   3.227 -0.1570  0.2921  0.1573
 9307WAT     H137934   2.012   5.080   3.226 -0.1205  0.3440  0.0658
 9307WAT     H237935   1.973   5.212   3.233 -0.1266  0.4316 -1.3568
 9307WAT    EPW37936   1.956   5.135   3.227  0.1014  0.3235  0.1641
 9308WAT      O37937   0.017   7.334   0.751  0.3180  0.1689  0.1007
 9308WAT     H137938  -0.066   7.309   0.752 -0.5697  2.7209  2.5666
 9308WAT     H237939   0.061   7.258   0.749 -2.0630 -1.3790  1.4435
 9308WAT    EPW37940   0.012   7.319   0.751 -0.5672 -0.3908  0.4032
 9309WAT      O37941   5.920   6.980   0.350  0.0372 -0.0411 -0.0886
 9309WAT     H137942   5.884   7.051   0.385 -1.3526 -0.4855 -0.5398
 9309WAT     H237943   5.851   6.935   0.320  0.9387 -1.2262 -0.4582
 9309WAT    EPW37944   5.904   6.984   0.351 -0.9604 -0.0248  0.5205
 9310WAT      O37945   5.701   2.793   3.941 -0.0266 -0.1179  0.7222
 9310WAT     H137946   5.623   2.792   3.901  0.1312  0.4565  0.3906
 9310WAT     H237947   5.680   2.789   4.026 -0.4469  0.5271  0.6582
 9310WAT    EPW37948   5.686   2.792   3.948 -0.1686 -0.4516 -0.4025
 9311WAT      O37949   5.804   6.630   0.715 -0.4034  0.3480 -0.0592
 9311WAT     H137950   5.823   6.545   0.704  3.4943  1.0261  0.0123
 9311WAT     H237951   5.838   6.648   0.793 -1.5550  1.9347  0.1150
 9311WAT    EPW37952   5.812   6.620   0.725  0.5187  0.0408 -0.0989
 9312WAT      O37953   0.602   5.844   1.263  0.2937 -0.2048 -0.0238
 9312WAT     H137954   0.598   5.909   1.205 -1.0899 -1.0939 -0.9842
 9312WAT     H237955   0.668   5.868   1.315  0.4069  1.5180 -0.8657
 9312WAT    EPW37956   0.611   5.857   1.262 -0.0600  0.0438 -0.2757
 9313WAT      O37957   6.707   0.377   5.528  0.3218 -0.1416 -0.7819
 9313WAT     H137958   6.758   0.443   5.556 -2.6641  2.0294  0.1310
 9313WAT     H237959   6.687   0.400   5.447 -0.3606 -0.1420 -0.6215
 9313WAT    EPW37960   6.711   0.390   5.520  0.4236 -0.2922  0.7578
 9314WAT      O37961   5.894   3.132   3.800  0.1887 -0.1533  0.1076
 9314WAT     H137962   5.925   3.051   3.807  1.3303  0.1771 -0.6967
 9314WAT     H237963   5.871   3.138   3.716  1.5288  0.8015 -0.2236
 9314WAT    EPW37964   5.895   3.121   3.789 -0.1402  0.4965 -0.1013
 9315WAT      O37965   4.238   5.661   3.413  0.2689  0.2720  0.1922
 9315WAT     H137966   4.176   5.601   3.422  0.1862  0.2371 -0.5421
 9315WAT     H237967   4.294   5.643   3.477  0.8882 -1.3807 -0.7451
 9315WAT    EPW37968   4.237   5.649   3.423 -0.1442  0.1931 -0.0944
 9316WAT      O37969   0.358   1.715   0.378  0.2991 -0.4984 -0.1395
 9316WAT     H137970   0.365   1.632   0.351 -0.6723 -0.3940 -0.7589
 9316WAT     H237971   0.273   1.725   0.392  0.3012  0.6050 -0.7831
 9316WAT    EPW37972   0.346   1.704   0.376 -0.1971 -0.1446 -0.3825
 9317WAT      O37973   3.354   7.223   1.142  0.2108  0.5972 -0.0988
 9317WAT     H137974   3.268   7.226   1.158 -0.1830  0.5337 -2.0446
 9317WAT     H237975   3.361   7.252   1.060  1.8928 -0.7716 -0.4915
 9317WAT    EPW37976   3.342   7.228   1.133  0.3894 -0.3124 -0.0992
 9318WAT      O37977   6.240   6.260   7.094 -0.5033  0.1364 -0.4395
 9318WAT     H137978   6.225   6.178   7.117 -2.4579  0.5493 -0.0327
 9318WAT     H237979   6.167   6.283   7.052 -0.1499  1.7538 -0.2371
 9318WAT    EPW37980   6.227   6.252   7.091  0.0466  0.6656  0.3354
 9319WAT      O37981   5.902   5.755   0.829  0.2190 -0.1442 -0.2411
 9319WAT     H137982   5.973   5.778   0.784 -0.5956 -1.9500 -2.6336
 9319WAT     H237983   5.926   5.682   0.870  0.2250  0.1753  0.3358
 9319WAT    EPW37984   5.916   5.748   0.829 -0.1290  0.0296  0.2642
 9320WAT      O37985   6.769   1.652   6.692 -0.1101 -0.6704  0.0638
 9320WAT     H137986   6.784   1.723   6.643  0.7756 -0.8691  0.0429
 9320WAT     H237987   6.696   1.618   6.658 -0.6171  0.2906  0.1502
 9320WAT    EPW37988   6.761   1.658   6.680  0.5340 -0.1132  0.4543
 9321WAT      O37989   0.585   2.377   5.010  0.0283  0.0351  0.7614
 9321WAT     H137990   0.666   2.377   4.977  0.4106 -0.0968  1.6788
 9321WAT     H237991   0.571   2.460   5.030 -0.6337  0.3093 -0.7200
 9321WAT    EPW37992   0.595   2.389   5.008 -0.7165  0.2152  0.3196
 9322WAT      O37993   4.325   4.930   6.562  0.1077  0.0238  0.5029
 9322WAT     H137994   4.282   4.999   6.529 -0.1326  0.5097  1.7780
 9322WAT     H237995   4.261   4.881   6.596  0.3982 -0.1285  0.8303
 9322WAT    EPW37996   4.309   4.933   6.562 -0.1184 -0.1676  0.4599
 9323WAT      O37997   0.071   3.549   5.851 -0.1983  0.1861 -0.1514
 9323WAT     H137998   0.004   3.566   5.905 -0.1255 -0.6698  0.2296
 9323WAT     H237999   0.035   3.499   5.789  0.1201 -0.4665  0.1765
 9323WAT    EPW38000   0.056   3.544   5.850  0.0463  0.4762  0.8942
 9324WAT      O38001   4.935   0.168   4.195  0.0707  0.0452 -0.0022
 9324WAT     H138002   4.938   0.085   4.170  0.6514  0.2241 -0.5380
 9324WAT     H238003   4.993   0.208   4.143  1.1036  0.4804  1.4126
 9324WAT    EPW38004   4.944   0.162   4.184 -0.6968  0.2214  0.5018
 9325WAT      O38005   3.284   1.573   3.104  0.0277  0.0349  0.0767
 9325WAT     H138006   3.208   1.605   3.074 -0.5948  0.4996  1.9992
 9325WAT     H238007   3.285   1.491   3.074 -1.6781 -0.2653  0.7007
 9325WAT    EPW38008   3.273   1.566   3.095 -0.3494 -0.3014  0.7824
 9326WAT      O38009   3.575   7.259   1.886  0.7306  0.2368 -0.4160
 9326WAT     H138010   3.536   7.203   1.832  1.2286 -2.9291  2.1977
 9326WAT     H238011   3.510   7.313   1.910 -0.8225 -1.5964 -0.2335
 9326WAT    EPW38012   3.560   7.259   1.882 -0.1255  0.4797  0.3350
 9327WAT      O38013   0.747   4.583   2.642  0.3140 -0.5364 -0.1133
 9327WAT     H138014   0.789   4.617   2.710 -1.2982  0.5796  0.3771
 9327WAT     H238015   0.709   4.512   2.675 -0.3133 -0.0984  0.1280
 9327WAT    EPW38016   0.747   4.577   2.657 -0.6117 -0.0176  0.0053
 9328WAT      O38017   1.833   0.596   0.423  0.1580  0.0535  0.4411
 9328WAT     H138018   1.916   0.588   0.447  0.3763  0.5368 -0.1002
 9328WAT     H238019   1.815   0.680   0.441 -0.6992 -0.4219  1.9805
 9328WAT    EPW38020   1.842   0.608   0.429  0.2601  0.3583  0.3229
 9329WAT      O38021   1.911   6.998   6.800  0.2715 -0.1497  0.0795
 9329WAT     H138022   1.882   6.986   6.882 -0.0704  1.2303  0.1779
 9329WAT     H238023   1.886   6.925   6.759 -4.4241  1.2156 -0.1230
 9329WAT    EPW38024   1.903   6.985   6.806 -0.8249 -0.5748  0.1920
 9330WAT      O38025   1.882   5.396   3.979  0.0901  0.2358 -0.1759
 9330WAT     H138026   1.811   5.368   3.937  0.2807  0.5391 -0.7069
 9330WAT     H238027   1.923   5.445   3.920  1.5760 -1.2132 -0.3945
 9330WAT    EPW38028   1.877   5.399   3.964  0.7850 -0.0953 -0.5174
 9331WAT      O38029   7.516   3.369   7.438 -0.6153  0.1853  0.4657
 9331WAT     H138030   7.600   3.375   7.463 -0.4501 -0.9046  0.2161
 9331WAT     H238031   7.473   3.407   7.504  0.0127 -0.0516  1.0228
 9331WAT    EPW38032   7.522   3.376   7.452 -0.1838  0.7520 -0.4380
 9332WAT      O38033   2.630   3.111   6.759 -0.0933 -0.0348  0.1716
 9332WAT     H138034   2.554   3.110   6.802 -2.1599  1.7388 -3.0364
 9332WAT     H238035   2.641   3.027   6.735 -1.0837 -0.3017  0.6080
 9332WAT    EPW38036   2.621   3.098   6.762 -0.1409 -0.0310  0.1276
 9333WAT      O38037   5.150   2.326   5.218  0.3492 -0.2752  0.5906
 9333WAT     H138038   5.165   2.390   5.161 -1.5955  0.6068  0.9751
 9333WAT     H238039   5.200   2.346   5.286  0.8190  0.0460  0.1564
 9333WAT    EPW38040   5.159   2.338   5.220  0.6008 -0.3011 -0.1360
 9334WAT      O38041   3.534   3.803   0.307 -0.0386  0.0967  0.0605
 9334WAT     H138042   3.615   3.774   0.320 -0.4434 -0.6166  1.1947
 9334WAT     H238043   3.486   3.754   0.362 -1.0926  1.1714  0.1390
 9334WAT    EPW38044   3.539   3.791   0.317  0.5637  0.0582 -0.0139
 9335WAT      O38045   2.028   0.816   6.412 -0.0759  0.0943 -0.2219
 9335WAT     H138046   2.009   0.815   6.497  1.0093 -0.9053  0.0371
 9335WAT     H238047   2.108   0.850   6.409  0.0698 -0.2836 -0.7991
 9335WAT    EPW38048   2.037   0.821   6.424 -0.1272 -0.0654  0.4226
 9336WAT      O38049   3.258   1.524   2.077 -0.2102  0.3406 -0.1408
 9336WAT     H138050   3.219   1.460   2.122 -0.7997 -0.5357 -1.8346
 9336WAT     H238051   3.331   1.540   2.123 -0.3453 -1.1325  0.6259
 9336WAT    EPW38052   3.263   1.517   2.090 -0.3587 -0.5719 -0.1220
 9337WAT      O38053   6.065   4.411   4.676 -0.2774 -0.0775 -0.2157
 9337WAT     H138054   6.055   4.370   4.600  0.5691 -0.0866 -0.3327
 9337WAT     H238055   6.079   4.494   4.652  0.2615 -0.1286 -0.0894
 9337WAT    EPW38056   6.066   4.418   4.661 -0.1206  0.2454 -0.2544
 9338WAT      O38057   3.777   3.613   2.146 -0.1229 -0.0206  0.0394
 9338WAT     H138058   3.846   3.666   2.138 -1.0672  1.3115  0.2781
 9338WAT     H238059   3.762   3.586   2.064  0.4887 -0.0806 -0.0578
 9338WAT    EPW38060   3.785   3.617   2.133 -0.5342 -0.0732 -0.1066
 9339WAT      O38061   0.941   3.535   2.727  0.0370 -0.1646  0.6775
 9339WAT     H138062   0.964   3.458   2.762  1.8982 -0.7367 -1.5726
 9339WAT     H238063   0.948   3.521   2.641  0.1024  2.4374  0.1922
 9339WAT    EPW38064   0.946   3.522   2.719  1.0711 -0.8396 -0.0169
 9340WAT      O38065   6.621   3.347   2.338 -0.4696  0.4103 -0.4800
 9340WAT     H138066   6.706   3.361   2.325 -0.4478 -0.8246 -2.0207
 9340WAT     H238067   6.617   3.261   2.357 -1.3691  0.4228 -0.5516
 9340WAT    EPW38068   6.633   3.336   2.339  0.5695 -0.0242  0.3018
 9341WAT      O38069   1.740   4.625   1.710 -0.2224  0.2170 -0.0602
 9341WAT     H138070   1.727   4.586   1.633 -0.0707 -1.6381  0.8073
 9341WAT     H238071   1.823   4.607   1.729 -0.2847  0.5747  0.5744
 9341WAT    EPW38072   1.750   4.617   1.701 -0.1112 -0.2534 -0.0313
 9342WAT      O38073   1.299   7.465   0.126 -0.0085 -0.1174  0.1448
 9342WAT     H138074   1.278   7.545   0.098  0.0200 -0.0707  0.2575
 9342WAT     H238075   1.280   7.414   0.057  0.5175  0.0548 -0.1298
 9342WAT    EPW38076   1.293   7.469   0.111  0.3571  0.1677 -0.2148
 9343WAT      O38077   3.770   5.852   6.975 -1.0440 -0.6685  0.3501
 9343WAT     H138078   3.841   5.803   6.977 -0.0761  0.4611 -2.0862
 9343WAT     H238079   3.783   5.910   7.040 -1.0827 -2.0861  1.6694
 9343WAT    EPW38080   3.782   5.854   6.985  0.1057  0.2780 -0.0131
 9344WAT      O38081   1.068   2.463   3.256 -0.7792 -0.1376  0.1021
 9344WAT     H138082   1.108   2.502   3.189 -0.0515 -1.4607 -0.2740
 9344WAT     H238083   1.016   2.525   3.288  0.2425  1.0787 -0.5245
 9344WAT    EPW38084   1.066   2.478   3.251  0.5492 -0.1328  0.6004
 9345WAT      O38085   2.295   0.509   4.826 -0.6932  0.2607 -0.1546
 9345WAT     H138086   2.242   0.561   4.872 -0.5680 -0.4977  0.8829
 9345WAT     H238087   2.366   0.503   4.876  0.1045  0.6970 -1.2068
 9345WAT    EPW38088   2.297   0.516   4.840 -0.4236 -0.0933  0.6840
 9346WAT      O38089   3.869   6.542   2.772 -0.2186 -0.3455  0.1377
 9346WAT     H138090   3.859   6.464   2.809 -0.0246 -0.2123  0.4881
 9346WAT     H238091   3.800   6.550   2.719 -0.3273 -0.6806  0.2270
 9346WAT    EPW38092   3.858   6.532   2.770  0.5000  0.1418 -0.0754
 9347WAT      O38093   6.704   0.003   0.099 -0.0214  0.4035  0.9493
 9347WAT     H138094   6.730  -0.013   0.018  1.1344  0.0974  1.3621
 9347WAT     H238095   6.635   0.056   0.089 -1.7418 -1.9097 -0.3275
 9347WAT    EPW38096   6.697   0.008   0.086 -0.1953 -0.0683  0.3220
 9348WAT      O38097   6.376   6.345   0.461 -0.0489 -0.1763 -0.2561
 9348WAT     H138098   6.352   6.424   0.432 -0.4941 -0.6398 -1.1959
 9348WAT     H238099   6.423   6.363   0.532 -2.7779  0.8240  1.4536
 9348WAT    EPW38100   6.379   6.359   0.467 -0.3629  0.3919  0.1016
 9349WAT      O38101   1.845   3.794   4.913  0.0782 -0.2450 -0.0451
 9349WAT     H138102   1.816   3.733   4.858  0.5134 -1.0990  0.6391
 9349WAT     H238103   1.909   3.754   4.956 -0.3863  0.3228  1.2240
 9349WAT    EPW38104   1.850   3.779   4.911  0.1841  0.1532  0.0863
 9350WAT      O38105   7.085   0.899   6.037  0.4474 -0.1239 -0.5238
 9350WAT     H138106   7.136   0.832   6.060 -0.4681 -0.3939  0.8434
 9350WAT     H238107   7.004   0.866   6.039 -0.2646  1.4768  2.3692
 9350WAT    EPW38108   7.080   0.884   6.041 -0.4232  0.0714 -0.0288
 9351WAT      O38109   7.430   1.237   3.456  0.0902  0.4138  0.3154
 9351WAT     H138110   7.406   1.158   3.484  0.1900  0.4665  0.5504
 9351WAT     H238111   7.512   1.224   3.429  0.4050  0.6263  1.1496
 9351WAT    EPW38112   7.439   1.223   3.456  0.1898 -0.1667 -0.0742
 9352WAT      O38113   2.286   3.613   1.613  0.7250  0.1116  0.1934
 9352WAT     H138114   2.240   3.641   1.544  1.8755  1.0059 -0.2545
 9352WAT     H238115   2.366   3.600   1.580  0.7301 -1.8502  0.8484
 9352WAT    EPW38116   2.291   3.615   1.598 -0.2955  0.3396 -0.4051
 9353WAT      O38117   5.532   0.748   4.777 -0.3298 -0.6950  0.1224
 9353WAT     H138118   5.517   0.672   4.817 -2.8099 -0.6327 -0.5567
 9353WAT     H238119   5.543   0.804   4.843  0.8721 -1.4702  0.6312
 9353WAT    EPW38120   5.531   0.745   4.793 -0.0391 -0.9057  0.5599
 9354WAT      O38121   0.176   3.368   3.834 -0.1819 -0.2170  0.1545
 9354WAT     H138122   0.132   3.430   3.792  0.2741  1.2766  1.7675
 9354WAT     H238123   0.244   3.410   3.868  0.7078 -1.8201  0.4441
 9354WAT    EPW38124   0.179   3.383   3.833  0.5811 -0.8718  0.0910
 9355WAT      O38125   1.083   1.947   7.174  0.0637  0.2626 -0.1008
 9355WAT     H138126   1.023   2.006   7.150  0.5149  0.0673 -1.7776
 9355WAT     H238127   1.071   1.942   7.261 -3.3589 -0.8861 -0.4754
 9355WAT    EPW38128   1.072   1.955   7.183  0.4124  0.1811 -0.3822
 9356WAT      O38129   6.971   5.082   1.332 -0.1553  0.0980  0.2171
 9356WAT     H138130   6.898   5.055   1.293 -0.3755 -2.0904  1.9253
 9356WAT     H238131   7.001   5.010   1.371  3.4235  0.6870 -1.0686
 9356WAT    EPW38132   6.964   5.067   1.332 -0.3416  0.1066  0.5349
 9357WAT      O38133   7.563   2.076   3.917  0.2485 -0.1325  0.8452
 9357WAT     H138134   7.579   2.094   4.001  0.1664  0.7352  0.6838
 9357WAT     H238135   7.630   2.026   3.893  1.5420  1.5448  0.8016
 9357WAT    EPW38136   7.575   2.071   3.926  0.5128 -0.2157  0.2362
 9358WAT      O38137   5.923   7.321   1.918 -0.4537 -0.3609  0.3373
 9358WAT     H138138   5.992   7.275   1.945 -0.0454 -0.1134 -0.2513
 9358WAT     H238139   5.855   7.269   1.937  0.1155 -2.5434 -2.7195
 9358WAT    EPW38140   5.923   7.306   1.925  0.1341 -0.3151 -0.2086
 9359WAT      O38141   0.727   5.451   0.914  0.0370  0.2329 -0.3722
 9359WAT     H138142   0.768   5.405   0.853  0.9288  0.1022  0.3019
 9359WAT     H238143   0.642   5.436   0.898  0.2686 -0.2804 -1.1863
 9359WAT    EPW38144   0.721   5.442   0.903 -0.7128 -0.2870  0.5674
 9360WAT      O38145   7.356   3.053   0.083 -1.2497 -0.0876 -0.0214
 9360WAT     H138146   7.345   3.139   0.088 -3.2741 -0.2349 -0.8741
 9360WAT     H238147   7.329   3.024   0.160 -0.4694  0.0138  0.3049
 9360WAT    EPW38148   7.351   3.062   0.095  0.1056  0.3232  0.8963
 9361WAT      O38149   1.101   2.357   5.952  0.3267 -0.1654 -0.0911
 9361WAT     H138150   1.162   2.408   5.917 -0.0446  0.1477 -0.2996
 9361WAT     H238151   1.132   2.339   6.031  0.3853  0.5334  0.0543
 9361WAT    EPW38152   1.114   2.362   5.958 -0.1017  0.3812 -0.6029
 9362WAT      O38153   6.856   1.132   7.072 -0.2662 -0.9390  0.1619
 9362WAT     H138154   6.882   1.176   7.143  0.7382 -0.8353 -0.2570
 9362WAT     H238155   6.914   1.155   7.011  0.2464 -2.7857 -0.1078
 9362WAT    EPW38156   6.868   1.142   7.073  0.0999 -0.1121 -0.0757
 9363WAT      O38157   3.029   0.249   6.267 -0.4122  0.3176  0.0503
 9363WAT     H138158   3.080   0.261   6.337 -2.2246  0.5737  1.3907
 9363WAT     H238159   3.064   0.303   6.208  0.1671  1.3937  1.3006
 9363WAT    EPW38160   3.042   0.259   6.269 -0.0447  0.4677  0.2556
 9364WAT      O38161   7.448   2.453   4.348  0.2471 -0.6580 -0.0635
 9364WAT     H138162   7.472   2.452   4.264 -0.4691 -2.5238 -0.2962
 9364WAT     H238163   7.492   2.386   4.383 -1.2662 -1.4321  0.4586
 9364WAT    EPW38164   7.458   2.443   4.341  0.3398  0.6436 -0.4221
 9365WAT      O38165   0.342   4.625   3.414 -0.1131 -0.2562  0.1267
 9365WAT     H138166   0.282   4.688   3.426 -1.4474 -1.2109 -1.1914
 9365WAT     H238167   0.343   4.584   3.491 -0.9215 -0.0002  0.2908
 9365WAT    EPW38168   0.333   4.628   3.427  0.8258 -0.3305 -0.1392
 9366WAT      O38169   1.265   1.409   7.589 -0.3009  0.7791 -0.4321
 9366WAT     H138170   1.345   1.443   7.595  0.0085  0.0318 -0.2969
 9366WAT     H238171   1.258   1.387   7.505  0.4212 -1.0213 -0.0585
 9366WAT    EPW38172   1.276   1.411   7.578  0.0345 -0.1889 -0.2970
 9367WAT      O38173   4.022   1.255   1.727  0.8019 -0.0507 -0.1471
 9367WAT     H138174   3.978   1.210   1.787  1.1848 -1.6170 -0.9792
 9367WAT     H238175   4.106   1.244   1.749  0.9998 -1.3484 -1.3640
 9367WAT    EPW38176   4.028   1.247   1.739 -0.6360  0.3445 -0.0129
 9368WAT      O38177   6.772   2.281   1.534 -0.1081  0.0410  0.2202
 9368WAT     H138178   6.738   2.245   1.606 -0.2061 -0.2871  0.0119
 9368WAT     H238179   6.740   2.362   1.534 -1.5908 -0.5188 -0.4307
 9368WAT    EPW38180   6.763   2.288   1.544  0.5385  0.4565  0.1238
 9369WAT      O38181   5.519   1.193   6.049  0.0235 -1.0000 -0.4659
 9369WAT     H138182   5.448   1.144   6.037 -0.9402  0.8719 -3.1280
 9369WAT     H238183   5.489   1.274   6.044  2.1129 -0.1245  0.2187
 9369WAT    EPW38184   5.504   1.198   6.047  0.4134 -0.2326  0.1297
 9370WAT      O38185   4.437   4.162   4.754 -0.7125 -0.4528  0.2965
 9370WAT     H138186   4.426   4.159   4.841  1.1544 -0.3601  0.5786
 9370WAT     H238187   4.450   4.078   4.733 -1.3988 -0.5027  0.0596
 9370WAT    EPW38188   4.437   4.149   4.764 -0.0018  0.4349  0.4147
 9371WAT      O38189   0.314   0.521   2.031  0.0480  0.3535  0.2422
 9371WAT     H138190   0.399   0.503   2.022  0.2166  0.5874  1.2252
 9371WAT     H238191   0.313   0.585   2.090 -0.7846  0.7456 -0.1826
 9371WAT    EPW38192   0.326   0.528   2.038 -0.9069  0.2037  0.2224
 9372WAT      O38193   2.865   4.736   3.592 -0.1227  0.3356 -0.3688
 9372WAT     H138194   2.889   4.662   3.631 -1.0327 -0.3989 -1.1314
 9372WAT     H238195   2.854   4.792   3.658  1.0916 -0.0485  0.1800
 9372WAT    EPW38196   2.867   4.733   3.607 -0.7278  0.2277 -0.2033
 9373WAT      O38197   7.130   2.719   1.483 -0.0060 -0.2713  0.2008
 9373WAT     H138198   7.083   2.647   1.499  0.9055 -0.6410  1.2702
 9373WAT     H238199   7.099   2.746   1.405 -0.0008 -2.0918 -0.4740
 9373WAT    EPW38200   7.118   2.712   1.474  0.2288 -0.5212 -0.3463
 9374WAT      O38201   3.323   1.290   5.445  0.1895 -0.6912  0.4868
 9374WAT     H138202   3.258   1.348   5.443  0.0144 -0.8469  1.2504
 9374WAT     H238203   3.363   1.301   5.368  0.6223  0.9897  0.8999
 9374WAT    EPW38204   3.319   1.300   5.433  0.2056  0.1069 -0.1498
 9375WAT      O38205   5.156   3.964   5.235 -0.0951 -0.0039  0.3129
 9375WAT     H138206   5.089   4.002   5.195 -0.5860 -1.2415 -0.0967
 9375WAT     H238207   5.119   3.919   5.299  0.5174  0.5793  1.0893
 9375WAT    EPW38208   5.140   3.963   5.238 -0.3999  0.1391  0.7498
 9376WAT      O38209   1.346   3.070   3.698  0.1736  0.7230 -0.4427
 9376WAT     H138210   1.287   3.122   3.735 -0.5075 -0.2494 -0.1462
 9376WAT     H238211   1.342   2.997   3.745  0.1117 -0.1272 -1.7234
 9376WAT    EPW38212   1.337   3.067   3.711 -0.2776 -0.0112 -0.3024
 9377WAT      O38213   7.314   1.085   4.077  0.1717  0.3497  0.2949
 9377WAT     H138214   7.277   1.152   4.118  1.7272  1.8024 -0.5463
 9377WAT     H238215   7.344   1.120   4.003 -0.5137 -1.6836 -1.0274
 9377WAT    EPW38216   7.313   1.100   4.073  1.2906  0.3713 -1.0179
 9378WAT      O38217   3.401  -0.013   4.541  0.6775  0.0358 -0.2417
 9378WAT     H138218   3.323  -0.033   4.507  0.9376  0.4709 -1.1152
 9378WAT     H238219   3.403   0.074   4.538  1.0037  0.0480  0.2292
 9378WAT    EPW38220   3.390  -0.003   4.536  0.0221  0.1313  0.1187
 9379WAT      O38221   0.652   2.332   5.806  0.2947 -0.0084 -0.0013
 9379WAT     H138222   0.655   2.246   5.824 -3.0871  0.1168  1.9954
 9379WAT     H238223   0.709   2.367   5.861 -0.0304 -0.7974  0.8559
 9379WAT    EPW38224   0.661   2.324   5.817 -0.1595 -0.5178 -0.5775
 9380WAT      O38225   5.669   5.885   4.636  0.6143  0.2782 -0.4937
 9380WAT     H138226   5.687   5.866   4.553  1.9438  0.5109 -0.2773
 9380WAT     H238227   5.645   5.968   4.634  0.0190  0.1070 -0.7190
 9380WAT    EPW38228   5.668   5.894   4.623 -0.1263 -0.1756 -0.5038
 9381WAT      O38229   2.631   0.226   0.471  0.6722  0.0361  0.7691
 9381WAT     H138230   2.576   0.165   0.500  0.8659  0.2716  1.6851
 9381WAT     H238231   2.618   0.293   0.526 -0.2209  1.1981 -0.7868
 9381WAT    EPW38232   2.621   0.227   0.484 -0.3613  0.2223 -0.1360
 9382WAT      O38233   6.733   2.702   4.207 -0.2923 -0.7080  0.1384
 9382WAT     H138234   6.813   2.672   4.225  0.3551  1.1090  0.4835
 9382WAT     H238235   6.694   2.705   4.285  0.5814  1.7889  0.5685
 9382WAT    EPW38236   6.739   2.698   4.221  0.0714  0.3986 -0.1019
 9383WAT      O38237   4.352   1.453   2.132  0.6736 -0.0333  0.0224
 9383WAT     H138238   4.385   1.493   2.203 -0.2743  0.6273  0.1149
 9383WAT     H238239   4.415   1.461   2.073  1.6973 -1.0549  0.9297
 9383WAT    EPW38240   4.366   1.460   2.134  0.0831  0.0713  0.0435
 9384WAT      O38241   0.128   5.852   2.212 -0.3019  0.0302  0.0686
 9384WAT     H138242   0.205   5.811   2.212 -0.0431  0.5008 -0.8348
 9384WAT     H238243   0.087   5.819   2.143  0.0576  1.5232 -0.8993
 9384WAT    EPW38244   0.134   5.841   2.202  0.3407  0.0574  0.0841
 9385WAT      O38245   1.603   1.846   0.190 -0.3428 -0.0397 -0.2691
 9385WAT     H138246   1.674   1.815   0.150  0.0041 -0.7193  0.8268
 9385WAT     H238247   1.635   1.877   0.266 -1.1445  0.0968  0.0155
 9385WAT    EPW38248   1.619   1.846   0.195 -0.4284  0.2418  0.1428
 9386WAT      O38249   1.458   3.458   0.727  0.0569  0.1522 -0.4991
 9386WAT     H138250   1.450   3.384   0.772  2.0962 -0.3506 -0.8937
 9386WAT     H238251   1.383   3.462   0.681 -0.8469 -0.7238  0.8179
 9386WAT    EPW38252   1.446   3.448   0.727  0.1294  0.4932 -0.2310
 9387WAT      O38253   2.246   2.083   6.386 -0.3612  0.5204 -0.3475
 9387WAT     H138254   2.326   2.070   6.354  0.4230 -0.7111  1.8637
 9387WAT     H238255   2.261   2.096   6.471 -2.4763  1.0403 -0.0022
 9387WAT    EPW38256   2.260   2.083   6.394  0.2892 -0.0841 -0.0967
 9388WAT      O38257   0.063   3.076   2.581  0.0358  0.2628 -0.0966
 9388WAT     H138258   0.082   3.003   2.538  0.4336 -0.2008  0.8161
 9388WAT     H238259  -0.010   3.105   2.543  0.0672 -0.4236 -0.6933
 9388WAT    EPW38260   0.055   3.070   2.569  0.3197 -0.3168  0.0239
 9389WAT      O38261   3.036   3.703   0.361 -0.4872 -0.4284 -0.3428
 9389WAT     H138262   2.982   3.635   0.363 -0.9780 -0.0847 -1.4632
 9389WAT     H238263   2.983   3.772   0.372 -0.0372 -0.1946  0.4650
 9389WAT    EPW38264   3.020   3.703   0.363  0.0881  0.2628  0.8847
 9390WAT      O38265   0.182   3.894   1.760 -0.0096 -0.0312  0.1002
 9390WAT     H138266   0.124   3.906   1.696 -1.7659  0.9102  1.7766
 9390WAT     H238267   0.250   3.859   1.719 -0.6736  1.4009 -2.4482
 9390WAT    EPW38268   0.184   3.890   1.744 -0.1207 -0.6335  0.2449
 9391WAT      O38269   3.901   5.356   6.831  0.0683 -1.0981  0.0971
 9391WAT     H138270   3.818   5.344   6.807  0.6103 -2.9967 -1.0129
 9391WAT     H238271   3.925   5.426   6.784 -0.3049 -1.8457 -1.2812
 9391WAT    EPW38272   3.892   5.365   6.820  0.2768 -0.0312  0.1577
 9392WAT      O38273   6.896   2.244   7.370  0.2017 -0.0543  0.0746
 9392WAT     H138274   6.917   2.234   7.454  1.0093 -0.6476 -0.1855
 9392WAT     H238275   6.858   2.322   7.368  0.8034  0.2748  0.8816
 9392WAT    EPW38276   6.894   2.254   7.382 -0.0393 -0.2321  0.1798
 9393WAT      O38277   5.047   3.308   5.737 -0.5136  0.1038 -0.1188
 9393WAT     H138278   5.065   3.283   5.656 -2.9259  0.0877 -0.7364
 9393WAT     H238279   5.001   3.381   5.726  1.3609  1.5966  1.3960
 9393WAT    EPW38280   5.043   3.315   5.723  0.3157  0.6000 -0.2334
 9394WAT      O38281   0.783   6.958   6.938  0.3509  0.3489  0.1650
 9394WAT     H138282   0.776   6.977   6.853 -0.9459 -2.5778 -0.5042
 9394WAT     H238283   0.862   6.988   6.960  0.9946  0.5980 -2.2466
 9394WAT    EPW38284   0.794   6.965   6.929  0.2552 -0.0269  0.0513
 9395WAT      O38285   5.082   0.265   4.437  0.5313  0.7027 -0.2629
 9395WAT     H138286   5.023   0.231   4.383  0.4126  0.8766 -0.2424
 9395WAT     H238287   5.157   0.231   4.410  0.7070  2.0164 -1.5590
 9395WAT    EPW38288   5.085   0.255   4.425 -0.2151  0.5522  0.0652
 9396WAT      O38289   0.468   5.123   7.018 -0.8542 -0.0029  0.5571
 9396WAT     H138290   0.538   5.161   7.053 -0.8266  0.3184  0.1528
 9396WAT     H238291   0.499   5.080   6.950 -1.2838  1.6113 -0.7150
 9396WAT    EPW38292   0.483   5.122   7.013  0.0753  0.5129 -0.3204
 9397WAT      O38293   0.197   5.630   6.581 -0.1150  0.1325 -0.1246
 9397WAT     H138294   0.124   5.610   6.538  0.6073 -0.8705 -0.9315
 9397WAT     H238295   0.169   5.648   6.662 -1.3737  1.0250 -0.7301
 9397WAT    EPW38296   0.182   5.630   6.587  0.5114 -0.4533  0.7086
 9398WAT      O38297   1.623   6.109   5.831 -0.1479 -0.0127 -0.3689
 9398WAT     H138298   1.690   6.072   5.873  1.3310  1.8869 -0.9264
 9398WAT     H238299   1.619   6.065   5.756  1.7542  0.9936 -1.1315
 9398WAT    EPW38300   1.633   6.097   5.826 -0.1196 -0.1705 -0.2560
 9399WAT      O38301   4.623   1.294   0.456 -0.2425  0.0733 -0.0607
 9399WAT     H138302   4.676   1.226   0.445  1.1962  0.9624  0.9414
 9399WAT     H238303   4.550   1.258   0.487  0.1098 -1.1011 -0.5312
 9399WAT    EPW38304   4.620   1.279   0.459 -0.5877  0.6927  0.0373
 9400WAT      O38305   1.854   2.101   3.902 -0.2457  0.0164 -0.5426
 9400WAT     H138306   1.830   2.159   3.962  1.1711  0.6005 -0.5119
 9400WAT     H238307   1.869   2.149   3.831  0.1092 -0.4118 -0.7653
 9400WAT    EPW38308   1.852   2.116   3.900  0.2123 -0.2359 -1.0611
 9401WAT      O38309   4.925   4.320   7.092 -0.4383 -0.0295 -0.0840
 9401WAT     H138310   4.998   4.333   7.046  0.1464 -0.2347  0.7770
 9401WAT     H238311   4.946   4.256   7.147 -1.0603  0.3629  0.6255
 9401WAT    EPW38312   4.939   4.312   7.093  0.1811 -0.2476  0.5770
 9402WAT      O38313   0.484   2.954   6.839 -0.0154 -0.3891  0.2359
 9402WAT     H138314   0.502   2.996   6.913  1.3902  0.1090 -0.3497
 9402WAT     H238315   0.549   2.896   6.833 -0.6886 -1.1221 -0.1019
 9402WAT    EPW38316   0.496   2.952   6.849  0.1302  0.4230  0.4484
 9403WAT      O38317   4.178   4.602   5.867 -0.8742 -0.1807 -0.5601
 9403WAT     H138318   4.212   4.554   5.801 -1.8342  0.2182 -1.3653
 9403WAT     H238319   4.117   4.650   5.828  0.0211  1.7049  0.2245
 9403WAT    EPW38320   4.174   4.602   5.851  0.0074 -0.0966 -0.2039
 9404WAT      O38321   1.184   5.781   5.043  0.2760  0.4325  0.1022
 9404WAT     H138322   1.184   5.719   5.104 -0.0154 -0.3780 -0.6933
 9404WAT     H238323   1.103   5.777   5.011  0.6441  0.3088 -0.8434
 9404WAT    EPW38324   1.172   5.771   5.047 -0.3975  0.1308 -0.5677
 9405WAT      O38325   2.478   1.615   5.048  0.1566 -0.2890 -0.4250
 9405WAT     H138326   2.435   1.563   4.993 -1.4666 -0.8787  1.2651
 9405WAT     H238327   2.436   1.691   5.041 -0.4235 -0.5237  0.3588
 9405WAT    EPW38328   2.465   1.618   5.039  0.0530 -0.6026 -0.1943
 9406WAT      O38329   3.209   0.034   2.100 -0.1715  0.1065 -0.3073
 9406WAT     H138330   3.275   0.018   2.045  1.1803  2.6104  0.4320
 9406WAT     H238331   3.161  -0.039   2.096  0.5796 -0.3635 -3.7052
 9406WAT    EPW38332   3.212   0.021   2.091 -0.2184  0.0077 -0.2793
 9407WAT      O38333   1.594   6.013   1.901 -0.2138  0.4990 -0.1676
 9407WAT     H138334   1.662   5.986   1.853 -0.1710  0.0972  0.1113
 9407WAT     H238335   1.547   6.061   1.845 -0.9164 -1.1370 -1.0676
 9407WAT    EPW38336   1.597   6.016   1.885 -0.5917  0.2940 -0.0047
 9408WAT      O38337   1.288   5.858   3.522  0.4058  0.2813  0.2392
 9408WAT     H138338   1.212   5.881   3.485 -0.2101  0.4976  1.5668
 9408WAT     H238339   1.324   5.804   3.464  0.1708  1.7311 -1.3119
 9408WAT    EPW38340   1.282   5.853   3.508 -0.0024 -0.0981 -0.0216
 9409WAT      O38341   0.845   0.545   4.761  0.2233  0.0616  0.5892
 9409WAT     H138342   0.900   0.478   4.755  0.1059 -0.0321  0.5536
 9409WAT     H238343   0.897   0.615   4.758  0.5894 -0.0227  2.7991
 9409WAT    EPW38344   0.861   0.546   4.760  0.3849  0.3532  0.1504
 9410WAT      O38345   2.606   0.541   2.975 -0.0793 -0.7171 -0.0333
 9410WAT     H138346   2.626   0.546   3.060  0.9083 -1.4434 -0.2117
 9410WAT     H238347   2.654   0.603   2.938 -0.1504 -0.7135 -0.1201
 9410WAT    EPW38348   2.616   0.551   2.982 -0.2385  0.0946  0.0922
 9411WAT      O38349   2.582   2.033   6.363 -0.5777 -0.4542 -0.1818
 9411WAT     H138350   2.669   2.029   6.360 -0.5649  0.1195 -0.7679
 9411WAT     H238351   2.565   2.042   6.449 -0.2051 -3.0344  0.2563
 9411WAT    EPW38352   2.592   2.034   6.376 -0.1006 -0.2014 -0.3142
 9412WAT      O38353   7.488   0.540   3.627  0.5009 -0.5640 -0.0515
 9412WAT     H138354   7.497   0.457   3.601  0.1725 -0.3831 -0.7735
 9412WAT     H238355   7.454   0.533   3.707  0.8225 -1.1260  0.0447
 9412WAT    EPW38356   7.484   0.527   3.635  0.0925 -0.0190  0.1694
 9413WAT      O38357   1.700   4.825   3.489  0.2162  0.1254 -0.2216
 9413WAT     H138358   1.711   4.911   3.486 -2.3735  0.6336  1.3588
 9413WAT     H238359   1.620   4.813   3.457  0.0369 -1.5280  0.6956
 9413WAT    EPW38360   1.690   4.836   3.484  0.4803  0.9009  0.0811
 9414WAT      O38361   3.488   1.946   7.613 -0.4005 -0.3844 -0.1233
 9414WAT     H138362   3.457   1.903   7.544 -1.3082 -0.0922  0.0888
 9414WAT     H238363   3.479   2.030   7.590  1.1875 -0.2826 -0.4659
 9414WAT    EPW38364   3.482   1.952   7.599 -0.0382  0.0372 -0.2381
 9415WAT      O38365   7.474   1.307   4.562 -0.8707 -0.0163  0.6217
 9415WAT     H138366   7.518   1.260   4.620 -0.7099  0.1166  0.6062
 9415WAT     H238367   7.402   1.259   4.549 -0.1909 -0.8338 -0.2596
 9415WAT    EPW38368   7.470   1.293   4.569  0.0443  0.0793 -0.5736
 9416WAT      O38369   1.517   4.499   0.776 -0.0130  0.1703 -0.0684
 9416WAT     H138370   1.549   4.536   0.703  0.4244  1.6401  0.8271
 9416WAT     H238371   1.575   4.521   0.837 -0.5769 -0.7064  0.8148
 9416WAT    EPW38372   1.531   4.508   0.774  0.3700 -1.0065 -0.9276
 9417WAT      O38373   4.672   0.492   6.858  0.2460  0.1575 -0.0270
 9417WAT     H138374   4.587   0.491   6.840 -0.0837 -1.5117  1.3217
 9417WAT     H238375   4.678   0.542   6.929 -0.1991 -2.3258  1.9176
 9417WAT    EPW38376   4.660   0.499   6.866  0.1100  0.2479  0.0680
 9418WAT      O38377   0.900   2.083   5.048  0.4944 -0.1852 -0.3423
 9418WAT     H138378   0.915   2.015   5.100 -1.2638  0.3651  0.9678
 9418WAT     H238379   0.865   2.142   5.101 -1.3821  0.4030 -2.1323
 9418WAT    EPW38380   0.897   2.081   5.063  0.2937  0.1785 -0.0108
 9419WAT      O38381   5.804   6.692   2.722  0.3202  0.2876  0.0874
 9419WAT     H138382   5.832   6.685   2.804  0.6704 -0.5630 -0.0898
 9419WAT     H238383   5.821   6.613   2.688  1.5855  1.0839 -1.2448
 9419WAT    EPW38384   5.811   6.679   2.729  0.4998  0.3654  0.6603
 9420WAT      O38385   1.838   5.452   7.278 -0.3918  0.2635 -0.3630
 9420WAT     H138386   1.778   5.432   7.217 -1.2194  1.7457 -0.0796
 9420WAT     H238387   1.909   5.471   7.231 -0.9087  0.9986 -0.8742
 9420WAT    EPW38388   1.840   5.452   7.262  0.2036  0.3551 -0.5938
 9421WAT      O38389   2.374   0.271   6.270 -0.0507 -0.1181  0.0841
 9421WAT     H138390   2.404   0.292   6.349 -0.5370  0.1928  0.1874
 9421WAT     H238391   2.311   0.214   6.287  0.5933 -0.9120 -0.1442
 9421WAT    EPW38392   2.369   0.266   6.284  0.0394 -0.1410  0.1119
 9422WAT      O38393   5.177   1.402   0.003 -0.0133  0.1980 -0.3481
 9422WAT     H138394   5.151   1.325   0.035  3.0107 -1.4085 -1.3245
 9422WAT     H238395   5.221   1.438   0.069  2.4036 -1.0827 -1.1361
 9422WAT    EPW38396   5.180   1.396   0.017 -0.2064  0.3484  0.2263
 9423WAT      O38397   1.959   2.366   4.982  0.4505  0.3146 -0.3040
 9423WAT     H138398   1.945   2.423   5.047  0.6823  0.2007 -0.1549
 9423WAT     H238399   1.882   2.365   4.940  1.0793  2.4947 -1.7175
 9423WAT    EPW38400   1.946   2.375   4.985 -0.3133  0.0565 -0.6942
 9424WAT      O38401   4.828   4.570   6.826  0.6247  0.6822  0.0507
 9424WAT     H138402   4.752   4.531   6.845 -1.9709  3.3992 -3.3589
 9424WAT     H238403   4.877   4.506   6.793 -1.9385 -0.5372 -1.7166
 9424WAT    EPW38404   4.824   4.555   6.824  0.6754 -0.4933  0.5312
 9425WAT      O38405   1.777   2.699   7.402 -0.0189 -0.3627  0.2567
 9425WAT     H138406   1.708   2.645   7.401  0.2582 -0.7298  0.6089
 9425WAT     H238407   1.748   2.771   7.441 -0.9406  0.5078 -1.8579
 9425WAT    EPW38408   1.763   2.702   7.407 -0.5315  0.2532  0.0248
 9426WAT      O38409   6.474   7.070   2.120 -0.3010 -0.4759  0.4138
 9426WAT     H138410   6.546   7.027   2.143 -0.2495 -1.3833 -1.2930
 9426WAT     H238411   6.451   7.111   2.194  3.0314  1.5074  0.5471
 9426WAT    EPW38412   6.481   7.070   2.135 -0.1246 -0.0521  0.3258
 9427WAT      O38413   2.924   1.467   0.934  0.0188 -0.0544  0.0443
 9427WAT     H138414   2.996   1.421   0.915  0.3085  0.3394  0.1657
 9427WAT     H238415   2.955   1.545   0.957 -0.5241  0.7793 -1.7935
 9427WAT    EPW38416   2.939   1.472   0.934 -0.2622 -0.2926 -0.5567
 9428WAT      O38417   3.683   7.485   1.026 -0.0412 -0.2875  0.2151
 9428WAT     H138418   3.608   7.527   1.014  0.7347  0.9348 -0.6610
 9428WAT     H238419   3.730   7.540   1.076  0.5091 -0.6992  0.1664
 9428WAT    EPW38420   3.679   7.500   1.031 -0.2592 -0.1370  0.0556
 9429WAT      O38421   6.675   4.864   0.466 -0.0438  0.4316  0.0581
 9429WAT     H138422   6.642   4.921   0.408  0.0813  0.4785  0.0328
 9429WAT     H238423   6.650   4.896   0.543  1.3439  1.3808  0.1392
 9429WAT    EPW38424   6.667   4.877   0.469  0.5526 -0.0982 -0.5055
 9430WAT      O38425   4.819   6.505   7.267  0.2516 -0.2594  0.2471
 9430WAT     H138426   4.787   6.509   7.348  0.0197 -0.2603  0.1543
 9430WAT     H238427   4.773   6.442   7.229 -0.1756  0.2751 -0.1248
 9430WAT    EPW38428   4.808   6.496   7.273 -0.0622  0.8477  0.2307
 9431WAT      O38429   4.793   7.161   3.528  0.0543  0.3275  0.6735
 9431WAT     H138430   4.717   7.134   3.560 -1.0009  2.3318  0.0507
 9431WAT     H238431   4.781   7.247   3.519  3.1311  1.1033  2.5448
 9431WAT    EPW38432   4.780   7.170   3.532  0.5906 -0.8553 -0.5081
 9432WAT      O38433   1.717   4.993   6.060 -0.1400  0.3402  0.6218
 9432WAT     H138434   1.768   4.941   6.011  0.7703 -0.2692  2.1632
 9432WAT     H238435   1.640   4.950   6.061 -0.3796  0.6714 -0.7323
 9432WAT    EPW38436   1.713   4.979   6.053 -0.2155  0.4072 -0.2843
 9433WAT      O38437   0.940   3.102   3.162  0.5452 -0.0246 -0.1739
 9433WAT     H138438   0.901   3.165   3.116 -0.3745 -1.4176 -1.3681
 9433WAT     H238439   0.976   3.146   3.229 -2.9594  1.4076  1.0041
 9433WAT    EPW38440   0.939   3.118   3.165  0.2570 -0.8677  0.1944
 9434WAT      O38441   0.483   2.595   0.144  0.1164  0.0866  0.2328
 9434WAT     H138442   0.505   2.550   0.073  0.0321  2.7996 -1.6906
 9434WAT     H238443   0.559   2.609   0.184  0.3769 -0.2571 -0.1295
 9434WAT    EPW38444   0.497   2.590   0.139 -0.1713 -0.0823  0.1202
 9435WAT      O38445   6.592   6.494   5.660  0.0043  0.4680 -0.1724
 9435WAT     H138446   6.657   6.502   5.602  0.5711 -1.8668  0.0562
 9435WAT     H238447   6.523   6.527   5.618  0.6412 -0.1015 -1.7398
 9435WAT    EPW38448   6.591   6.500   5.645 -0.3100 -0.1792  0.2640
 9436WAT      O38449   2.302   3.543   0.140  0.3657 -0.2103 -0.1503
 9436WAT     H138450   2.215   3.548   0.146  0.3786  0.5537 -0.4946
 9436WAT     H238451   2.329   3.623   0.161  1.0112 -0.5371  0.2918
 9436WAT    EPW38452   2.293   3.555   0.144 -0.3193 -0.3533  0.0033
 9437WAT      O38453   6.700   1.377   3.834 -0.3316 -0.4576 -0.1261
 9437WAT     H138454   6.700   1.339   3.756  0.7645 -0.5416 -0.0975
 9437WAT     H238455   6.777   1.354   3.868 -0.2506  0.6277  0.4643
 9437WAT    EPW38456   6.712   1.368   3.828  0.2050  0.3194 -0.8784
 9438WAT      O38457   6.540   2.402   2.668  0.0992  0.3015 -0.3238
 9438WAT     H138458   6.534   2.471   2.616 -0.6586 -1.0431 -2.1045
 9438WAT     H238459   6.616   2.366   2.646  0.5929  0.6442  0.7441
 9438WAT    EPW38460   6.550   2.407   2.657 -0.2402 -0.4188 -0.3042
 9439WAT      O38461   6.015   2.305   5.349  0.5920 -0.1034  0.1397
 9439WAT     H138462   5.979   2.378   5.317  0.1852 -0.1541  0.4682
 9439WAT     H238463   6.028   2.256   5.278 -2.5961 -1.2563  0.1922
 9439WAT    EPW38464   6.012   2.309   5.334  0.3174 -0.1921 -0.0694
 9440WAT      O38465   0.034   5.207   3.071 -0.5759  0.8293 -0.2712
 9440WAT     H138466   0.028   5.232   3.154  1.1051  0.7138 -0.0801
 9440WAT     H238467  -0.046   5.179   3.052 -0.7306 -0.2109  1.6521
 9440WAT    EPW38468   0.021   5.207   3.080 -0.1192 -0.0239  0.2922
 9441WAT      O38469   0.698   2.692   6.097  0.1209 -0.3314 -0.3538
 9441WAT     H138470   0.612   2.707   6.097  0.4435  2.1216 -1.2273
 9441WAT     H238471   0.717   2.678   6.181 -1.1243 -0.9398 -0.1518
 9441WAT    EPW38472   0.688   2.692   6.109  0.4737  0.4003 -0.3199
 9442WAT      O38473   7.383   1.135   3.179 -0.1734 -0.2119 -0.1890
 9442WAT     H138474   7.297   1.121   3.187  0.1983 -1.9584  1.3880
 9442WAT     H238475   7.407   1.159   3.259  0.8951 -0.1760 -0.5077
 9442WAT    EPW38476   7.374   1.137   3.192 -0.4085  0.0884 -0.1099
 9443WAT      O38477   7.338   5.087   3.201  0.2820 -0.3789 -0.2707
 9443WAT     H138478   7.338   5.050   3.122 -0.1321 -1.4305  0.1958
 9443WAT     H238479   7.325   5.019   3.255 -2.0074  0.5958  0.5370
 9443WAT    EPW38480   7.336   5.072   3.198 -0.3421 -0.1012  0.4623
 9444WAT      O38481   3.141   6.301   6.976 -0.9864 -0.7867 -0.6579
 9444WAT     H138482   3.150   6.253   6.903 -1.5728 -0.3109 -1.0508
 9444WAT     H238483   3.057   6.324   6.975 -1.1977 -1.4443  0.6096
 9444WAT    EPW38484   3.130   6.297   6.965 -0.0026  0.0487  0.5387
 9445WAT      O38485   1.889   4.113   5.949 -0.0704 -0.6754 -0.7953
 9445WAT     H138486   1.901   4.054   5.886 -0.7020 -0.8491 -0.7602
 9445WAT     H238487   1.889   4.189   5.905 -0.5100 -0.7953 -1.0098
 9445WAT    EPW38488   1.891   4.116   5.933 -0.8104 -0.2949 -0.2432
 9446WAT      O38489   5.327   1.901   2.626  0.0989 -0.0136 -0.1541
 9446WAT     H138490   5.318   1.968   2.570 -0.1745 -1.5261 -2.0158
 9446WAT     H238491   5.254   1.906   2.674 -0.1347  0.7712 -0.5620
 9446WAT    EPW38492   5.315   1.912   2.625 -0.0639  0.3145 -0.4655
 9447WAT      O38493   0.395   4.042   2.759 -0.6928 -0.4206  0.0291
 9447WAT     H138494   0.417   3.995   2.829  0.4859  0.4286  0.2587
 9447WAT     H238495   0.458   4.024   2.702 -2.0748 -1.7484 -1.1738
 9447WAT    EPW38496   0.408   4.032   2.761 -0.8520 -0.9138 -0.3136
 9448WAT      O38497   3.315   2.724   5.214 -0.2394  0.3232 -0.1730
 9448WAT     H138498   3.255   2.730   5.277 -0.9313  1.2390 -0.9062
 9448WAT     H238499   3.342   2.641   5.221 -1.0980  0.0843  0.6080
 9448WAT    EPW38500   3.310   2.712   5.224  0.3442 -0.0496  0.2968
 9449WAT      O38501   3.830   5.910   6.698  0.1172 -0.5021 -0.0075
 9449WAT     H138502   3.799   5.875   6.772 -2.0474  1.8864  0.3767
 9449WAT     H238503   3.887   5.970   6.727  0.6310 -0.7949 -0.4005
 9449WAT    EPW38504   3.834   5.914   6.713  0.3570  0.1106 -0.5537
 9450WAT      O38505   6.013   3.826   4.568 -0.0053 -0.6003  0.5284
 9450WAT     H138506   5.958   3.815   4.636 -0.5700 -1.7163 -0.0747
 9450WAT     H238507   6.070   3.761   4.578  0.2868 -0.3793  0.2844
 9450WAT    EPW38508   6.013   3.815   4.580  0.4159  0.2170 -0.3154
 9451WAT      O38509   1.199   1.659   3.369 -0.1833 -0.4174 -0.0155
 9451WAT     H138510   1.220   1.619   3.444 -1.4272  0.0776  0.6177
 9451WAT     H238511   1.266   1.714   3.357  0.3753 -0.9946  0.3489
 9451WAT    EPW38512   1.212   1.661   3.378 -0.5193  0.1376 -0.0644
 9452WAT      O38513   3.487   6.318   4.345  0.3930  0.3445  0.0167
 9452WAT     H138514   3.486   6.312   4.432  0.2861  1.6218  0.1245
 9452WAT     H238515   3.571   6.323   4.325  0.5861 -2.3301 -0.1935
 9452WAT    EPW38516   3.499   6.318   4.355 -0.0283  0.1568  0.3253
 9453WAT      O38517   2.734   5.972   2.386  0.0375  0.1365 -0.0529
 9453WAT     H138518   2.681   5.946   2.450 -0.7910 -1.1168 -1.1873
 9453WAT     H238519   2.709   6.055   2.371  0.9097  0.8109  1.8371
 9453WAT    EPW38520   2.722   5.981   2.393 -0.1899 -0.3187  0.5965
 9454WAT      O38521   0.854   1.363   6.074  0.3342  0.3893  0.1377
 9454WAT     H138522   0.883   1.444   6.060 -1.3149  1.0620  0.4175
 9454WAT     H238523   0.875   1.348   6.157 -0.8868  1.2330  0.6228
 9454WAT    EPW38524   0.861   1.373   6.084 -0.0013  0.1483  0.1055
 9455WAT      O38525   1.613   6.757   0.606  0.1904  0.4054 -0.0881
 9455WAT     H138526   1.605   6.672   0.589  0.3201  0.4019 -0.1367
 9455WAT     H238527   1.584   6.795   0.533 -0.3135  0.4137  0.1107
 9455WAT    EPW38528   1.607   6.750   0.592 -0.5277  0.0115  1.0716
 9456WAT      O38529   4.245   2.512   4.509 -0.2177 -0.3458 -0.0450
 9456WAT     H138530   4.280   2.562   4.446  0.1954 -0.4750  0.0791
 9456WAT     H238531   4.161   2.508   4.487  0.0721 -1.0968 -1.0815
 9456WAT    EPW38532   4.238   2.519   4.496  0.2906  0.2374 -0.6410
 9457WAT      O38533   4.956   6.658   5.311 -0.0788  0.1197  0.3795
 9457WAT     H138534   5.035   6.633   5.340  0.0072  0.7295  0.6971
 9457WAT     H238535   4.950   6.620   5.233  0.4466 -0.0994  0.4398
 9457WAT    EPW38536   4.967   6.649   5.304 -0.2021 -0.3522 -0.2540
 9458WAT      O38537   7.096   6.440   3.188 -0.0603  0.1179 -0.4140
 9458WAT     H138538   7.116   6.399   3.114  0.8252  0.9293 -0.6460
 9458WAT     H238539   7.152   6.507   3.190 -0.7144  0.6618  0.5101
 9458WAT    EPW38540   7.107   6.444   3.177 -0.2000 -0.0411 -0.3053
 9459WAT      O38541   4.411   6.578   0.962 -0.1537  0.2194 -0.6929
 9459WAT     H138542   4.439   6.650   0.922  0.4819  0.5674  0.3486
 9459WAT     H238543   4.465   6.516   0.932  1.0171  0.6734  0.3987
 9459WAT    EPW38544   4.423   6.579   0.951  0.4654  0.1108  0.6500
 9460WAT      O38545   6.430   5.186   0.609  0.2861  0.1827  0.1105
 9460WAT     H138546   6.501   5.204   0.560 -0.8375  0.2220 -1.5988
 9460WAT     H238547   6.449   5.108   0.644 -0.1359 -1.5509 -3.1233
 9460WAT    EPW38548   6.444   5.177   0.607  0.2199  0.2751 -0.3765
 9461WAT      O38549   2.338   0.162   5.738  0.8897 -0.0428 -1.0480
 9461WAT     H138550   2.368   0.178   5.819  0.2413 -0.9269 -0.6214
 9461WAT     H238551   2.253   0.152   5.749  0.9830 -1.6809 -1.5870
 9461WAT    EPW38552   2.330   0.163   5.751 -0.0764 -0.0350  0.0821
 9462WAT      O38553   6.083   3.365   3.407 -0.3801  0.4101  0.0160
 9462WAT     H138554   6.124   3.409   3.344  0.0782 -1.4744 -1.0930
 9462WAT     H238555   6.144   3.357   3.469 -0.6650  1.8237  0.5006
 9462WAT    EPW38556   6.098   3.370   3.407  0.5278 -0.0789  0.0991
 9463WAT      O38557   0.566   6.813   1.073 -0.4231  0.0385  0.3969
 9463WAT     H138558   0.573   6.728   1.053 -0.8855  0.1095 -0.1116
 9463WAT     H238559   0.490   6.818   1.116 -0.4271  0.2035  0.3717
 9463WAT    EPW38560   0.556   6.801   1.076 -0.0831 -0.1846  0.1956
 9464WAT      O38561   4.702   3.480   5.501 -0.2790  0.9003  0.1166
 9464WAT     H138562   4.651   3.500   5.568 -0.8368  0.5314 -0.1912
 9464WAT     H238563   4.668   3.407   5.469 -1.1651  2.0266 -1.7064
 9464WAT    EPW38564   4.690   3.473   5.506  0.0869  0.1426 -0.2240
 9465WAT      O38565   5.115   4.997   6.875 -0.1814  0.5921 -0.6087
 9465WAT     H138566   5.113   4.986   6.961  1.8663  2.4186 -0.2419
 9465WAT     H238567   5.078   4.924   6.844 -2.2930  0.5209  1.7800
 9465WAT    EPW38568   5.109   4.985   6.883 -0.4815 -0.0633 -0.6793
 9466WAT      O38569   2.060   3.964   4.705  0.2100 -0.3780 -0.1206
 9466WAT     H138570   1.999   3.914   4.742 -0.5446  0.5590 -0.0720
 9466WAT     H238571   2.111   3.907   4.663 -1.2448 -1.1100 -0.9470
 9466WAT    EPW38572   2.059   3.948   4.704 -0.1433 -0.4327  0.1879
 9467WAT      O38573   4.415   0.837   5.117 -0.0867  0.1396 -0.6174
 9467WAT     H138574   4.350   0.866   5.067 -0.8063 -1.0782 -0.4488
 9467WAT     H238575   4.424   0.754   5.093  0.3631 -0.1368  0.4229
 9467WAT    EPW38576   4.407   0.829   5.106 -0.6698  0.5406 -0.1792
 9468WAT      O38577   6.098   6.394   2.771 -0.0756  0.2819 -0.4505
 9468WAT     H138578   6.177   6.368   2.797 -1.3256 -2.2275  1.3065
 9468WAT     H238579   6.078   6.340   2.706 -0.8273  0.0294 -0.0241
 9468WAT    EPW38580   6.106   6.382   2.766  0.0672  0.1461 -0.3756
 9469WAT      O38581   7.410   6.975   4.141 -0.6228 -0.5213 -0.0966
 9469WAT     H138582   7.418   7.046   4.091 -0.2452  1.1128  2.1310
 9469WAT     H238583   7.478   6.926   4.118 -0.1262  0.4612 -0.7728
 9469WAT    EPW38584   7.421   6.979   4.130  0.1267 -0.7200  0.3283
 9470WAT      O38585   5.799   7.057   7.046  0.1640  0.0368 -0.0725
 9470WAT     H138586   5.835   7.135   7.029  0.2071  0.0406  0.0369
 9470WAT     H238587   5.854   7.021   7.104 -0.0618  0.0874  0.1769
 9470WAT    EPW38588   5.813   7.064   7.052 -0.2487 -0.0292  0.1486
 9471WAT      O38589   4.050   5.279   5.797  0.3598 -0.1096 -0.0408
 9471WAT     H138590   4.136   5.293   5.787  0.4384  0.2835  1.0479
 9471WAT     H238591   4.014   5.329   5.735  0.9085 -0.2040 -0.4454
 9471WAT    EPW38592   4.058   5.288   5.786  0.0947  0.1115  0.1028
 9472WAT      O38593   5.206   1.806   6.979 -0.3644  0.5096 -0.0905
 9472WAT     H138594   5.122   1.823   6.964 -0.0334  0.9436 -1.6073
 9472WAT     H238595   5.224   1.741   6.924  0.1211 -0.0914  0.7517
 9472WAT    EPW38596   5.196   1.799   6.969  0.1201  0.2149  0.1030
 9473WAT      O38597   2.473   1.795   2.361  0.2639  0.3213  0.4351
 9473WAT     H138598   2.434   1.835   2.428  1.3397  0.9751  0.6969
 9473WAT     H238599   2.461   1.711   2.378 -1.6992  0.4876  0.0909
 9473WAT    EPW38600   2.465   1.789   2.373 -0.2150 -0.3464 -0.2184
 9474WAT      O38601   0.754   4.851   1.542 -0.0351  0.3853  0.2224
 9474WAT     H138602   0.706   4.874   1.473  0.7414  0.7839 -0.1943
 9474WAT     H238603   0.818   4.802   1.508 -0.2988 -0.3921  0.8071
 9474WAT    EPW38604   0.756   4.847   1.527  0.0029  0.2660  0.2452
 9475WAT      O38605   1.384   4.974   6.386 -0.0553  0.3383  0.6574
 9475WAT     H138606   1.440   4.975   6.319  0.9151  0.5065  1.4370
 9475WAT     H238607   1.327   4.911   6.365 -0.3453  1.0273 -0.7506
 9475WAT    EPW38608   1.384   4.964   6.373 -0.7174  0.2677  0.4237
 9476WAT      O38609   5.473   6.834   3.467 -0.3823  0.0199  0.0096
 9476WAT     H138610   5.526   6.776   3.428  1.3666  0.0540  2.1198
 9476WAT     H238611   5.474   6.903   3.413  1.0425 -0.3294 -0.4499
 9476WAT    EPW38612   5.481   6.836   3.454 -0.5113 -0.6870  0.5830
 9477WAT      O38613   4.994   6.290   7.156  0.0686  0.2028  0.1349
 9477WAT     H138614   5.062   6.235   7.157 -0.9260 -1.0479  0.7755
 9477WAT     H238615   5.008   6.341   7.225  0.3010 -0.1122  0.3236
 9477WAT    EPW38616   5.006   6.290   7.166  0.3151 -0.4406  0.4665
 9478WAT      O38617   4.931   3.258   7.445  0.4497 -0.0911 -0.1444
 9478WAT     H138618   4.917   3.172   7.438  1.6585 -0.6023  2.4196
 9478WAT     H238619   4.986   3.264   7.512 -1.8810  2.8543  1.7654
 9478WAT    EPW38620   4.937   3.246   7.454 -0.2719  0.5229 -0.1894
 9479WAT      O38621   6.719   4.029   2.009  0.8783  0.1076 -0.3386
 9479WAT     H138622   6.714   4.003   1.926  1.2164 -1.0893 -0.0011
 9479WAT     H238623   6.636   4.028   2.036  0.6794  1.2200 -0.8534
 9479WAT    EPW38624   6.706   4.025   2.001  0.5313 -0.0787 -0.3242
 9480WAT      O38625   0.587   3.852   1.856  0.0648  0.3440  0.6974
 9480WAT     H138626   0.505   3.826   1.869 -0.2364  1.8144  2.0384
 9480WAT     H238627   0.585   3.883   1.775 -0.7878  0.5910  0.7960
 9480WAT    EPW38628   0.574   3.853   1.846 -0.7205 -0.3842  0.0235
 9481WAT      O38629   2.339   1.777   3.194  0.2239  0.1395  0.0148
 9481WAT     H138630   2.326   1.734   3.269 -2.2741  1.8434  0.7120
 9481WAT     H238631   2.412   1.823   3.209 -0.6465  1.0555  1.7947
 9481WAT    EPW38632   2.348   1.777   3.207  0.2287 -0.1469  0.2784
 9482WAT      O38633   2.200   4.666   3.507  0.4969  0.1527  0.5503
 9482WAT     H138634   2.220   4.739   3.550  0.3191  0.0489  0.8143
 9482WAT     H238635   2.137   4.691   3.453  0.1375  0.1104  0.9381
 9482WAT    EPW38636   2.194   4.680   3.506  0.2597  0.1069  0.0945
 9483WAT      O38637   4.443   0.621   6.349  0.2867  0.5173 -0.2509
 9483WAT     H138638   4.436   0.638   6.264  1.7384  1.3281 -0.2492
 9483WAT     H238639   4.390   0.680   6.386 -0.6208 -0.0697 -0.5964
 9483WAT    EPW38640   4.434   0.633   6.342  1.2641  0.2877  0.4823
 9484WAT      O38641   3.122   2.121   2.608  0.0187  0.7759  0.0759
 9484WAT     H138642   3.099   2.037   2.605  0.5460  0.6389 -0.4966
 9484WAT     H238643   3.193   2.121   2.660  0.7815  0.6589 -0.9289
 9484WAT    EPW38644   3.129   2.109   2.615 -0.0351  0.1921 -1.3211
 9485WAT      O38645   2.492   2.806   5.641  0.1949  0.0117 -0.4543
 9485WAT     H138646   2.456   2.855   5.703  0.5102 -0.3334  0.0090
 9485WAT     H238647   2.518   2.864   5.581 -2.2258  0.1944 -1.4091
 9485WAT    EPW38648   2.491   2.822   5.641 -0.4651  0.2662 -0.2267
 9486WAT      O38649   0.948   4.732   4.430 -0.7723 -0.1728  0.1518
 9486WAT     H138650   0.916   4.782   4.493  0.4310  0.2933  0.4129
 9486WAT     H238651   0.895   4.663   4.429 -1.0723  0.0297  1.3587
 9486WAT    EPW38652   0.936   4.729   4.439 -0.2942  0.1471 -0.7136
 9487WAT      O38653   3.103   0.871   6.356  0.2526  0.0945 -0.4631
 9487WAT     H138654   3.162   0.821   6.397 -0.3927 -0.4149 -0.1444
 9487WAT     H238655   3.139   0.883   6.277  1.4705  1.0214  0.1860
 9487WAT    EPW38656   3.117   0.865   6.350 -0.0972  0.1382  0.6712
 9488WAT      O38657   2.991   5.284   5.046  0.1236 -0.2881  0.2875
 9488WAT     H138658   3.006   5.350   5.100 -0.6082 -0.3934  0.6354
 9488WAT     H238659   3.065   5.238   5.049  0.7218  0.6221 -0.1286
 9488WAT    EPW38660   3.004   5.287   5.054  0.8418 -0.5630  0.0805
 9489WAT      O38661   6.908   3.976   2.929  0.6803 -0.1921  0.9524
 9489WAT     H138662   6.854   4.043   2.909  0.8229  0.0422  1.3436
 9489WAT     H238663   6.953   4.006   2.997 -1.0148 -1.6088  2.8075
 9489WAT    EPW38664   6.906   3.991   2.936 -0.3651  0.2338  0.6173
 9490WAT      O38665   2.055   2.021   2.112  0.1655 -0.0534 -0.3106
 9490WAT     H138666   2.087   1.976   2.045  0.6182  1.5156 -1.1921
 9490WAT     H238667   2.125   2.036   2.163  0.3097  0.8213 -0.7382
 9490WAT    EPW38668   2.070   2.017   2.110 -0.4008 -0.6095 -0.7218
 9491WAT      O38669   0.348   0.753   3.106 -0.0626 -0.1578  0.2313
 9491WAT     H138670   0.413   0.788   3.152  0.1652 -0.6020  0.2524
 9491WAT     H238671   0.377   0.754   3.024 -0.0073 -0.3936  0.2453
 9491WAT    EPW38672   0.362   0.758   3.100  0.0324 -0.1241  0.1895
 9492WAT      O38673   2.738   4.699   5.809  0.3692 -0.6007  0.0730
 9492WAT     H138674   2.760   4.672   5.729 -0.9266 -0.9596 -0.1906
 9492WAT     H238675   2.699   4.776   5.795 -0.6217 -1.0522  0.2419
 9492WAT    EPW38676   2.735   4.706   5.795 -0.5613 -0.1551 -0.2450
 9493WAT      O38677   3.034   3.650   1.167 -0.4151  0.0290  0.2518
 9493WAT     H138678   3.077   3.644   1.243 -1.5449  0.0059  0.9072
 9493WAT     H238679   3.004   3.570   1.153 -2.0834  0.4935  0.9346
 9493WAT    EPW38680   3.036   3.637   1.176 -0.0326 -0.3424 -0.0678
 9494WAT      O38681   1.202   1.039   3.909  0.5524  0.0318  0.1297
 9494WAT     H138682   1.152   0.968   3.907 -0.6982  0.8796  0.0904
 9494WAT     H238683   1.257   1.028   3.842 -0.1849 -0.4947 -0.3953
 9494WAT    EPW38684   1.203   1.027   3.899 -0.4952  0.3934  0.3115
 9495WAT      O38685   1.822   6.076   4.064 -0.5427 -0.4744 -0.0070
 9495WAT     H138686   1.750   6.075   4.113 -0.5419 -0.5005 -0.0063
 9495WAT     H238687   1.840   5.992   4.052 -0.0428 -0.4870  0.6922
 9495WAT    EPW38688   1.814   6.064   4.070 -0.0385  0.1308 -0.3119
 9496WAT      O38689   7.540   1.591   1.554 -0.5728 -0.7033 -0.0902
 9496WAT     H138690   7.546   1.673   1.585 -0.4162 -0.7276 -0.0519
 9496WAT     H238691   7.455   1.573   1.558 -1.1990  0.7520 -3.4683
 9496WAT    EPW38692   7.529   1.600   1.559  0.1154 -0.4169  0.3701
 9497WAT      O38693   3.174   4.610   2.024 -0.2277  0.0147  0.8093
 9497WAT     H138694   3.181   4.634   1.940 -1.7473  1.0930  0.9484
 9497WAT     H238695   3.168   4.686   2.066 -1.5719 -0.5307  1.6612
 9497WAT    EPW38696   3.174   4.625   2.018 -0.3128  0.2690  0.3682
 9498WAT      O38697   2.439   1.450   3.566  0.4843  0.0729 -0.1894
 9498WAT     H138698   2.445   1.400   3.637 -2.9162 -0.1594  0.0785
 9498WAT     H238699   2.404   1.524   3.596  1.8400  1.1793 -1.1989
 9498WAT    EPW38700   2.435   1.454   3.581 -0.2833  0.1282  0.3263
 9499WAT      O38701   2.692   0.143   3.344 -0.0487 -0.3018  0.5159
 9499WAT     H138702   2.740   0.102   3.404 -1.9512  0.3940  2.6830
 9499WAT     H238703   2.682   0.223   3.378  1.4838  1.2905 -2.3800
 9499WAT    EPW38704   2.698   0.149   3.358 -0.6269  0.0733 -0.3898
 9500WAT      O38705   0.769   3.009   6.556  0.2276  0.1695  0.1960
 9500WAT     H138706   0.716   3.015   6.487 -0.7199  0.8004  0.9509
 9500WAT     H238707   0.819   3.081   6.551  1.1106 -0.4654 -0.5598
 9500WAT    EPW38708   0.769   3.021   6.545 -0.0131 -0.0591  0.2070
 9501WAT      O38709   5.035   0.847   0.876 -0.2415  0.3519  0.4600
 9501WAT     H138710   5.107   0.856   0.925  0.1126  1.3668 -0.2159
 9501WAT     H238711   5.013   0.929   0.856 -0.6788 -0.0103 -0.6330
 9501WAT    EPW38712   5.042   0.860   0.880 -0.2363  0.1097  0.2097
 9502WAT      O38713   1.816   6.218   5.474  0.2824  0.0603 -0.1659
 9502WAT     H138714   1.755   6.273   5.504 -0.4376  0.0250 -1.4621
 9502WAT     H238715   1.864   6.199   5.544 -0.5176  0.9852  0.6540
 9502WAT    EPW38716   1.814   6.223   5.489 -0.0623  0.2165  0.4028
 9503WAT      O38717   7.395   0.841   5.319 -0.2008  0.3512 -0.1649
 9503WAT     H138718   7.382   0.778   5.260 -0.6464  0.3156 -0.0323
 9503WAT     H238719   7.468   0.815   5.361 -0.9282 -0.6135  0.5615
 9503WAT    EPW38720   7.404   0.828   5.317 -0.3714 -0.6390  0.1032
 9504WAT      O38721   7.222   2.638   6.595 -0.0390 -0.8248 -0.4291
 9504WAT     H138722   7.233   2.711   6.641  0.0513 -0.4210 -1.0821
 9504WAT     H238723   7.152   2.601   6.632  1.2975 -1.6377  1.4576
 9504WAT    EPW38724   7.213   2.643   6.607  0.0440 -0.3535  0.1351
 9505WAT      O38725   4.590   5.559   7.509  0.2817  0.5815 -0.1579
 9505WAT     H138726   4.518   5.595   7.544 -0.3216 -0.4806 -0.2564
 9505WAT     H238727   4.589   5.588   7.427  1.0594  2.1362  0.3434
 9505WAT    EPW38728   4.579   5.568   7.502 -0.4664 -0.0393  0.2352
 9506WAT      O38729   1.152   0.430   3.302 -0.0828 -0.2024 -0.2390
 9506WAT     H138730   1.199   0.363   3.332  0.0868 -0.0264 -0.1106
 9506WAT     H238731   1.091   0.392   3.253 -0.3803 -0.4983  0.3420
 9506WAT    EPW38732   1.150   0.415   3.299  0.1899  0.6570 -0.0839
 9507WAT      O38733   4.399   3.054   0.778  0.2966  0.3420 -0.3666
 9507WAT     H138734   4.420   3.057   0.862  3.2705  0.2094 -0.9999
 9507WAT     H238735   4.321   3.093   0.775  0.5644  1.2768  2.2812
 9507WAT    EPW38736   4.391   3.060   0.790 -0.5434 -0.2646  0.0216
 9508WAT      O38737   5.180   2.553   0.196 -0.4178 -0.0253  0.6458
 9508WAT     H138738   5.212   2.515   0.124  3.5702  1.7142  1.2203
 9508WAT     H238739   5.169   2.487   0.251 -0.7183 -1.0742 -0.6083
 9508WAT    EPW38740   5.183   2.538   0.193  0.1141 -0.0656 -0.1731
 9509WAT      O38741   0.092   2.763   6.225 -0.5850  0.0345  0.5397
 9509WAT     H138742   0.052   2.836   6.202 -2.3210 -0.7365  0.9550
 9509WAT     H238743   0.097   2.717   6.151  0.8185  0.6795  0.2072
 9509WAT    EPW38744   0.087   2.767   6.211 -0.2197  0.0763  0.0581
 9510WAT      O38745   0.246   4.864   1.692 -0.0105 -0.0638 -0.4001
 9510WAT     H138746   0.259   4.943   1.658 -0.5652  0.1956 -0.0193
 9510WAT     H238747   0.250   4.878   1.778 -0.6845 -0.3414 -0.3174
 9510WAT    EPW38748   0.248   4.878   1.700 -0.4656 -0.2348 -0.1811
 9511WAT      O38749   6.195   1.778   3.885 -0.8213  0.5204 -1.0326
 9511WAT     H138750   6.149   1.784   3.811 -1.1970  2.0240 -0.7259
 9511WAT     H238751   6.261   1.833   3.872 -0.9824  0.9225 -0.2102
 9511WAT    EPW38752   6.198   1.787   3.872  0.9948 -0.9877 -0.1040
 9512WAT      O38753   0.829   0.487   1.358 -0.1172 -0.3097 -0.8140
 9512WAT     H138754   0.840   0.471   1.273 -1.7223 -1.5331 -0.8327
 9512WAT     H238755   0.743   0.478   1.370 -0.1991  1.6878  0.5964
 9512WAT    EPW38756   0.818   0.483   1.347 -0.2085 -0.4680 -0.2619
 9513WAT      O38757   7.278   0.720   0.769 -0.1533  0.2825 -0.1004
 9513WAT     H138758   7.250   0.718   0.852  2.4199 -0.9271  0.8504
 9513WAT     H238759   7.305   0.802   0.758 -1.0452  0.6047  0.0304
 9513WAT    EPW38760   7.278   0.732   0.780  0.5752 -0.0412 -0.1389
 9514WAT      O38761   6.686   4.946   2.473  0.4753 -0.1135 -0.0352
 9514WAT     H138762   6.689   4.986   2.551  0.2312  1.6747 -0.8873
 9514WAT     H238763   6.764   4.965   2.438 -0.6545  2.1777 -1.5858
 9514WAT    EPW38764   6.698   4.955   2.479 -0.3007  0.3773  0.2317
 9515WAT      O38765   0.419   5.512   5.149 -0.0790  0.7101  0.1874
 9515WAT     H138766   0.356   5.571   5.148  0.0275  0.8201 -0.1160
 9515WAT     H238767   0.405   5.468   5.224  0.8615  2.2014  1.2843
 9515WAT    EPW38768   0.408   5.514   5.160  0.2708  0.7251 -0.6002
 9516WAT      O38769   2.901   4.180   5.699 -0.8142  0.2008  0.2304
 9516WAT     H138770   2.983   4.155   5.717 -1.0702 -1.0941 -0.2930
 9516WAT     H238771   2.879   4.229   5.768  1.3888  3.1300 -0.9319
 9516WAT    EPW38772   2.910   4.184   5.712  0.3509 -0.2900 -0.1575
 9517WAT      O38773   5.154   4.521   6.546  0.3048  0.1503  0.6675
 9517WAT     H138774   5.118   4.461   6.599 -0.3286 -0.5381 -0.5064
 9517WAT     H238775   5.240   4.507   6.554  0.1509 -1.5513 -0.2822
 9517WAT    EPW38776   5.161   4.510   6.555  0.1787 -0.3148 -0.2121
 9518WAT      O38777   0.288   4.301   7.555 -0.6159  0.6620 -0.0153
 9518WAT     H138778   0.314   4.341   7.482  0.4336  1.1340  0.6037
 9518WAT     H238779   0.346   4.236   7.564 -1.1384  0.1988  0.0444
 9518WAT    EPW38780   0.301   4.297   7.545 -0.6300 -0.2722  0.1530
 9519WAT      O38781   3.751   6.328   2.913 -0.6457 -0.2701  0.1404
 9519WAT     H138782   3.772   6.253   2.952  0.2177  0.5369  1.3191
 9519WAT     H238783   3.666   6.319   2.895 -0.3599 -1.8649 -0.5832
 9519WAT    EPW38784   3.741   6.316   2.916  0.3773 -0.2930 -0.0054
 9520WAT      O38785   6.510   4.605   5.845 -0.4166  0.6858  0.4548
 9520WAT     H138786   6.585   4.616   5.888  0.0790 -1.7402  0.3777
 9520WAT     H238787   6.531   4.617   5.762 -0.7142  2.4747  0.6113
 9520WAT    EPW38788   6.524   4.608   5.839  0.2560 -0.1965  0.4408
 9521WAT      O38789   3.654   0.289   7.597  0.1133  0.3666  1.2125
 9521WAT     H138790   3.674   0.204   7.589 -1.4098 -0.1869  2.6444
 9521WAT     H238791   3.645   0.315   7.515 -2.7982 -1.8080  0.6600
 9521WAT    EPW38792   3.655   0.280   7.584 -0.0713  0.0155  0.2086
 9522WAT      O38793   5.842   1.196   2.068  0.0883  0.6897 -0.9612
 9522WAT     H138794   5.873   1.143   2.005  0.0958 -1.2321  0.5691
 9522WAT     H238795   5.776   1.238   2.028  0.2353 -0.2931 -2.3194
 9522WAT    EPW38796   5.837   1.194   2.053 -0.5016 -0.6145 -0.4114
 9523WAT      O38797   0.533   6.489   5.937 -0.2222 -0.5935  0.0439
 9523WAT     H138798   0.517   6.519   5.857 -1.0508  0.2795  0.5275
 9523WAT     H238799   0.620   6.487   5.941 -0.1706 -0.5744 -0.8411
 9523WAT    EPW38800   0.543   6.493   5.925 -0.0602  0.5463 -0.1123
 9524WAT      O38801   1.030   7.410   0.894 -0.2784  0.1775  0.3059
 9524WAT     H138802   1.079   7.337   0.894 -0.3260  0.0297 -2.2672
 9524WAT     H238803   1.072   7.463   0.839 -1.6618  1.0417  0.0212
 9524WAT    EPW38804   1.043   7.407   0.886  0.5157  0.1289  0.5066
 9525WAT      O38805   4.029   3.668   7.354  0.1761 -0.0912 -0.3296
 9525WAT     H138806   3.965   3.646   7.299  0.9865 -0.4552 -1.1711
 9525WAT     H238807   4.090   3.702   7.301  0.9770 -0.4448  0.3407
 9525WAT    EPW38808   4.029   3.669   7.338  0.0697 -0.1363  0.9741
 9526WAT      O38809   0.711   3.838   2.099 -0.8251 -0.5035 -0.0368
 9526WAT     H138810   0.643   3.875   2.139 -1.3701 -0.1644 -1.2312
 9526WAT     H238811   0.683   3.826   2.017  0.5139 -0.4595 -0.5309
 9526WAT    EPW38812   0.697   3.842   2.093  0.5788  0.3299 -0.1733
 9527WAT      O38813   6.388   4.077   6.233 -0.3556 -0.0271  0.1923
 9527WAT     H138814   6.332   4.072   6.299 -0.6080 -1.2385 -0.0917
 9527WAT     H238815   6.346   4.039   6.167  0.3786  0.0132 -0.3159
 9527WAT    EPW38816   6.374   4.070   6.233  0.6849 -0.2036  0.1408
 9528WAT      O38817   2.559   5.207   5.955  0.4307  0.0010 -0.0483
 9528WAT     H138818   2.625   5.256   5.926  0.3573  1.3340  1.8297
 9528WAT     H238819   2.598   5.144   6.002  0.4505  1.6848  2.3838
 9528WAT    EPW38820   2.574   5.205   5.958  0.4808  0.1982  0.4478
 9529WAT      O38821   1.952   1.547   3.560 -0.0514  0.3599  0.2181
 9529WAT     H138822   1.878   1.501   3.559 -0.0612  0.3858 -0.5560
 9529WAT     H238823   1.925   1.629   3.572 -0.2446  0.5301 -1.3000
 9529WAT    EPW38824   1.937   1.552   3.562 -0.1458 -0.1007  0.8374
 9530WAT      O38825   2.071   0.679   1.043  0.1784 -0.2075 -0.1023
 9530WAT     H138826   2.141   0.677   0.991 -0.0034 -0.8849 -0.3291
 9530WAT     H238827   2.004   0.666   0.988 -0.1221  0.4115  0.1168
 9530WAT    EPW38828   2.071   0.677   1.027 -0.1930 -0.4270  0.8222
 9531WAT      O38829   4.481   5.764   6.355  0.2521  0.7593 -0.4828
 9531WAT     H138830   4.525   5.818   6.407  1.9086 -0.4550 -0.5175
 9531WAT     H238831   4.506   5.685   6.384  0.2013  0.0553 -2.2649
 9531WAT    EPW38832   4.492   5.760   6.367  0.4043 -0.4346  0.0576
 9532WAT      O38833   5.620   5.459   0.863 -0.2005 -0.5536  0.5213
 9532WAT     H138834   5.591   5.448   0.782 -1.2282 -0.5925  0.8783
 9532WAT     H238835   5.583   5.535   0.887 -2.8019 -2.1604  2.1201
 9532WAT    EPW38836   5.610   5.468   0.855 -0.3869 -0.3534  0.9299
 9533WAT      O38837   6.723   7.302   4.165 -0.6623 -0.4560  0.1358
 9533WAT     H138838   6.733   7.234   4.218  1.2051 -0.4557 -0.1532
 9533WAT     H238839   6.726   7.370   4.219  0.8089 -0.4742  0.1032
 9533WAT    EPW38840   6.725   7.302   4.181 -0.4438  0.7926 -0.5085
 9534WAT      O38841   4.614   5.069   2.741 -0.0071  0.2264  0.3803
 9534WAT     H138842   4.558   5.016   2.701 -0.9315  0.6443  1.0698
 9534WAT     H238843   4.618   5.038   2.823  0.5418  0.3791  0.4181
 9534WAT    EPW38844   4.607   5.057   2.747  0.0700 -0.6699 -0.5258
 9535WAT      O38845   7.058   7.346   5.195 -0.2804  0.0292  0.2582
 9535WAT     H138846   7.013   7.374   5.264 -0.8057 -0.8542  0.2852
 9535WAT     H238847   7.132   7.316   5.230  0.1086  0.9496  0.2692
 9535WAT    EPW38848   7.063   7.346   5.210  0.4907 -0.0730  0.5907
 9536WAT      O38849   7.278   4.674   5.722  0.0055  0.5555  0.3856
 9536WAT     H138850   7.214   4.641   5.771  0.5307 -1.4086 -0.1732
 9536WAT     H238851   7.258   4.647   5.641  0.7366  1.2349 -0.0416
 9536WAT    EPW38852   7.265   4.665   5.717 -0.3345 -0.7417 -0.5094
 9537WAT      O38853   4.984   6.733   1.131 -0.6247  0.4854  0.3290
 9537WAT     H138854   5.045   6.765   1.077 -2.4401 -0.4424 -2.5465
 9537WAT     H238855   4.920   6.792   1.127 -0.6525  0.6020  1.8990
 9537WAT    EPW38856   4.983   6.747   1.122 -0.4076 -0.4505  0.6713
 9538WAT      O38857   5.765   5.657   2.620  0.0661 -0.1037  0.0577
 9538WAT     H138858   5.750   5.571   2.624  0.1465 -0.1752 -0.9713
 9538WAT     H238859   5.840   5.663   2.576  0.2283  0.4842  0.4058
 9538WAT    EPW38860   5.774   5.645   2.614 -0.2037  0.5726  0.3458
 9539WAT      O38861   1.357   7.533   6.908 -0.9629 -0.6017 -0.0671
 9539WAT     H138862   1.274   7.509   6.911 -1.7007  1.5484 -0.9655
 9539WAT     H238863   1.363   7.596   6.968  0.1888 -1.1292  0.4071
 9539WAT    EPW38864   1.346   7.539   6.917 -0.0330 -0.1869 -0.4363
 9540WAT      O38865   7.223   6.088   1.966  0.4362  0.5716  0.4685
 9540WAT     H138866   7.281   6.069   1.903  1.6909  0.2889  1.6617
 9540WAT     H238867   7.146   6.083   1.925  1.0041 -2.1736 -0.4687
 9540WAT    EPW38868   7.220   6.085   1.950  0.5315  0.2089 -0.0099
 9541WAT      O38869   1.723   6.284   3.726  0.2856 -0.4439  0.3767
 9541WAT     H138870   1.668   6.216   3.736  0.3259 -0.5390  0.0003
 9541WAT     H238871   1.798   6.246   3.704  1.3670 -0.5318  3.6809
 9541WAT    EPW38872   1.726   6.268   3.724 -0.5716  0.0879 -0.8689
 9542WAT      O38873   2.173   0.370   4.567 -0.0064  0.2187 -0.6795
 9542WAT     H138874   2.246   0.359   4.614  0.8126 -0.4238 -2.0602
 9542WAT     H238875   2.140   0.444   4.598  0.4943 -0.1810  0.9095
 9542WAT    EPW38876   2.179   0.379   4.579 -0.0843 -0.5026 -0.3507
 9543WAT      O38877   3.177   4.627   2.959  0.0506  0.6001 -0.2926
 9543WAT     H138878   3.149   4.545   2.973  0.2542  0.5846  0.0195
 9543WAT     H238879   3.230   4.643   3.026 -0.0018  0.9970 -0.3417
 9543WAT    EPW38880   3.180   4.617   2.971 -0.4074  0.3428 -0.0973
 9544WAT      O38881   1.744   6.581   2.808 -0.3426  0.3995  0.3088
 9544WAT     H138882   1.748   6.667   2.796 -1.3223  0.4997  0.5699
 9544WAT     H238883   1.689   6.554   2.745 -1.5491  0.2495  1.3721
 9544WAT    EPW38884   1.736   6.589   2.797 -0.7944  0.1544 -0.7190
 9545WAT      O38885   5.582   0.130   4.935  0.3390 -0.8469  0.2368
 9545WAT     H138886   5.616   0.058   4.971  0.5704 -1.0199 -0.3079
 9545WAT     H238887   5.510   0.100   4.894 -1.0260 -0.3450  2.1222
 9545WAT    EPW38888   5.576   0.115   4.934 -0.2125  0.2285 -0.1794
 9546WAT      O38889   0.695   6.500   7.154 -0.0561 -0.0362 -0.3332
 9546WAT     H138890   0.648   6.469   7.221 -1.3244 -0.2527 -1.2987
 9546WAT     H238891   0.719   6.428   7.111  0.3345  0.1294 -0.3976
 9546WAT    EPW38892   0.692   6.485   7.158  0.3654 -0.1081 -0.1847
 9547WAT      O38893   5.904   6.204   4.950 -0.2057  0.1204  0.1350
 9547WAT     H138894   5.990   6.199   4.965 -0.3190  0.9104  1.1570
 9547WAT     H238895   5.893   6.156   4.878  1.6035  2.4883 -1.9066
 9547WAT    EPW38896   5.915   6.196   4.942 -0.1087 -0.0426  0.8793
 9548WAT      O38897   1.969   3.242   6.119 -0.1353  0.2827  0.0132
 9548WAT     H138898   1.999   3.236   6.201  0.7492 -0.3257 -0.3380
 9548WAT     H238899   1.886   3.267   6.129 -0.0544  0.1627  1.0969
 9548WAT    EPW38900   1.961   3.245   6.133  0.0299 -0.3542  0.1800
 9549WAT      O38901   3.428   1.248   0.970 -0.2628 -0.2970 -0.1450
 9549WAT     H138902   3.467   1.249   0.892 -2.0516 -1.5578 -1.1128
 9549WAT     H238903   3.456   1.174   1.006  0.9353  0.5116  0.6653
 9549WAT    EPW38904   3.438   1.237   0.964 -0.8622  0.3758 -0.1949
 9550WAT      O38905   4.534   0.081   0.906  0.2391  0.1116  0.5622
 9550WAT     H138906   4.543   0.133   0.837 -0.2352 -1.6857 -0.9414
 9550WAT     H238907   4.569   0.005   0.879 -0.1000 -0.6768  2.2333
 9550WAT    EPW38908   4.540   0.077   0.892 -0.3367  0.0090 -0.1713
 9551WAT      O38909   4.653   2.644   2.422  0.2871  0.6621 -0.0587
 9551WAT     H138910   4.568   2.633   2.438  0.2044  0.5895 -0.5255
 9551WAT     H238911   4.692   2.581   2.469  0.1641  1.3011  0.9255
 9551WAT    EPW38912   4.647   2.633   2.431 -0.5036  0.0845  0.1857
 9552WAT      O38913   5.358   6.891   2.534  0.2166 -0.3903  0.2654
 9552WAT     H138914   5.349   6.965   2.579  1.4262 -0.8308  1.2775
 9552WAT     H238915   5.423   6.850   2.575  1.4505 -0.7770 -1.9252
 9552WAT    EPW38916   5.366   6.896   2.546 -0.1587 -0.0107  0.0661
 9553WAT      O38917   7.478   0.101   7.388 -0.0018 -0.0393  0.7593
 9553WAT     H138918   7.489   0.016   7.403 -1.3443 -0.1163  1.5038
 9553WAT     H238919   7.506   0.139   7.461  0.4197  0.1508  0.5006
 9553WAT    EPW38920   7.483   0.094   7.401  0.3625 -0.5864 -0.1055
 9554WAT      O38921   2.044   6.142   1.097  0.1929  0.0345  0.5488
 9554WAT     H138922   1.992   6.205   1.127 -0.1690  0.8203 -1.5822
 9554WAT     H238923   2.054   6.162   1.013  2.2946 -1.2435  0.4229
 9554WAT    EPW38924   2.038   6.154   1.089 -0.4943  0.4016 -0.5691
 9555WAT      O38925   1.600   5.682   5.391 -0.2928  0.4394 -0.4630
 9555WAT     H138926   1.614   5.714   5.311  0.7576 -2.1052 -1.3963
 9555WAT     H238927   1.580   5.598   5.376 -1.5722  0.2492  1.8763
 9555WAT    EPW38928   1.599   5.674   5.377 -0.3103  0.0238  0.3813
 9556WAT      O38929   5.052   0.437   2.972 -0.1604 -0.5423 -0.2890
 9556WAT     H138930   5.015   0.486   3.035  1.7369 -1.1311  1.3671
 9556WAT     H238931   5.099   0.378   3.016  0.6764 -1.4505 -2.2744
 9556WAT    EPW38932   5.053   0.436   2.988  0.2045  0.4663  0.2088
 9557WAT      O38933   3.483   1.555   2.253  0.3509 -0.0197  0.2614
 9557WAT     H138934   3.567   1.581   2.254  0.4731 -0.3835  1.7656
 9557WAT     H238935   3.445   1.604   2.314 -0.0563 -1.2899  1.0652
 9557WAT    EPW38936   3.490   1.566   2.262  0.0057  0.2607 -0.1470
 9558WAT      O38937   4.410   7.311   5.516  0.4107 -0.0366 -0.1129
 9558WAT     H138938   4.416   7.398   5.506 -0.3492 -0.0275 -0.5488
 9558WAT     H238939   4.446   7.280   5.443  0.0856 -0.0733 -0.2587
 9558WAT    EPW38940   4.416   7.319   5.504 -0.2628 -0.7972 -0.2505
 9559WAT      O38941   6.605   6.235   5.809  0.1458  0.2664  0.4734
 9559WAT     H138942   6.638   6.244   5.890 -1.3115  0.8454  1.0466
 9559WAT     H238943   6.606   6.317   5.778 -1.8480  0.5366  0.9963
 9559WAT    EPW38944   6.610   6.249   5.817  0.3629  0.3078 -0.8360
 9560WAT      O38945   4.384   2.425   6.143 -0.1370  0.4796  0.1181
 9560WAT     H138946   4.298   2.429   6.130 -0.1874  0.8280  0.5129
 9560WAT     H238947   4.417   2.417   6.063 -0.4717  1.6671 -0.1564
 9560WAT    EPW38948   4.376   2.424   6.129 -0.6174  0.1984 -0.4121
 9561WAT      O38949   2.543   3.748   4.829 -0.2218  0.1128 -0.4476
 9561WAT     H138950   2.547   3.772   4.913 -1.3941  1.7126 -0.8058
 9561WAT     H238951   2.582   3.813   4.787  1.4278 -1.2373 -1.0991
 9561WAT    EPW38952   2.549   3.761   4.835  0.1893  0.3839 -0.3172
 9562WAT      O38953   6.355   3.185   2.126  0.2376 -0.0897 -0.2206
 9562WAT     H138954   6.354   3.272   2.120  1.7213 -0.0778 -0.6024
 9562WAT     H238955   6.420   3.161   2.073 -0.9724 -1.5334 -1.1427
 9562WAT    EPW38956   6.364   3.194   2.117  0.5995  0.0507  0.4271
 9563WAT      O38957   3.724   3.172   4.638 -0.8142 -0.4081  0.3936
 9563WAT     H138958   3.671   3.153   4.572  2.1154  0.7589 -2.5993
 9563WAT     H238959   3.772   3.100   4.647  1.8584  0.8157 -2.2102
 9563WAT    EPW38960   3.724   3.159   4.630  0.2183 -0.1969  0.3683
 9564WAT      O38961   4.457   5.654   3.578 -0.1350  0.5649 -0.2994
 9564WAT     H138962   4.468   5.691   3.656  1.5746  0.6967 -0.5625
 9564WAT     H238963   4.447   5.569   3.596  1.1792  0.4512  0.0630
 9564WAT    EPW38964   4.457   5.647   3.592 -0.0489 -0.0846  0.0676
 9565WAT      O38965   0.842   3.682   4.900  0.2849 -0.0794  0.3945
 9565WAT     H138966   0.918   3.668   4.941  0.1336 -1.1131  0.3493
 9565WAT     H238967   0.853   3.644   4.822 -0.6775 -1.3308  0.8324
 9565WAT    EPW38968   0.855   3.674   4.895 -0.8552 -0.2653  0.2437
 9566WAT      O38969   5.682   4.315   0.231  0.1261  0.2423  0.0005
 9566WAT     H138970   5.722   4.303   0.307 -0.2978 -1.3932  0.0011
 9566WAT     H238971   5.747   4.333   0.175  0.7957 -1.4760  0.1778
 9566WAT    EPW38972   5.698   4.316   0.234  0.1811 -0.1374 -0.5928
 9567WAT      O38973   1.490   0.110   3.778 -0.4845 -0.1845 -0.4363
 9567WAT     H138974   1.511   0.178   3.727  1.2800  0.9034  1.5327
 9567WAT     H238975   1.425   0.141   3.827  1.0583  0.5817  1.2306
 9567WAT    EPW38976   1.484   0.125   3.778  0.6963 -0.2262  0.1982
 9568WAT      O38977   2.076   5.294   4.613  0.7914 -0.4401  0.0862
 9568WAT     H138978   2.116   5.239   4.667  2.0362  1.9842  1.8180
 9568WAT     H238979   2.062   5.365   4.662  2.7411  2.2584 -2.8787
 9568WAT    EPW38980   2.080   5.296   4.628  0.4042 -0.2023  0.5233
 9569WAT      O38981   0.610   6.877   5.196 -0.1811 -0.3461  0.1131
 9569WAT     H138982   0.571   6.949   5.226  0.6151 -0.8013  2.4176
 9569WAT     H238983   0.544   6.823   5.179 -0.7094  0.2744  0.1546
 9569WAT    EPW38984   0.595   6.880   5.198  0.1113 -0.4092  0.2331
 9570WAT      O38985   7.459   2.284   4.695  0.0707 -0.0582  0.4150
 9570WAT     H138986   7.484   2.204   4.720 -0.8148 -0.7477 -0.7982
 9570WAT     H238987   7.374   2.275   4.681 -0.4665  1.6370  2.1837
 9570WAT    EPW38988   7.450   2.271   4.697 -0.1378 -0.0782  0.1043
 9571WAT      O38989   3.893   2.820   1.657 -0.0411  0.1238 -0.5600
 9571WAT     H138990   3.908   2.901   1.685  0.9880  0.6612 -2.4676
 9571WAT     H238991   3.878   2.830   1.572 -1.0380 -1.5937 -0.6491
 9571WAT    EPW38992   3.893   2.833   1.649 -0.3579 -0.5053 -0.5031
 9572WAT      O38993   3.749   6.360   5.748  0.1187  0.5257  0.0771
 9572WAT     H138994   3.824   6.351   5.791  1.3138  0.4129 -1.9212
 9572WAT     H238995   3.721   6.439   5.772  1.1489  0.8059  0.4182
 9572WAT    EPW38996   3.756   6.370   5.758  0.2806  0.4315 -0.3032
 9573WAT      O38997   6.678   3.613   5.007 -0.3424 -0.1313 -0.3140
 9573WAT     H138998   6.593   3.598   4.991 -0.1896  0.0836 -1.4189
 9573WAT     H238999   6.718   3.543   4.974 -0.1096 -0.4093  0.5420
 9573WAT    EPW39000   6.671   3.601   5.000 -0.2920  0.1635  0.9359
 9574WAT      O39001   7.290   0.308   2.359  0.5380 -0.4423  0.2232
 9574WAT     H139002   7.250   0.374   2.402 -0.1483 -1.1827  0.7565
 9574WAT     H239003   7.371   0.338   2.346  0.3042  0.4179  0.6657
 9574WAT    EPW39004   7.296   0.322   2.363 -0.3053 -0.4014  0.0127
 9575WAT      O39005   2.919   2.845   2.658  0.2985 -0.0792 -0.4276
 9575WAT     H139006   2.979   2.790   2.627  1.1161  1.6486 -2.0841
 9575WAT     H239007   2.844   2.811   2.628  0.4435 -1.9019  1.1265
 9575WAT    EPW39008   2.917   2.832   2.649  0.5605 -0.4635  0.1701
 9576WAT      O39009   1.058   5.313   6.845 -0.5807 -0.1534 -0.3888
 9576WAT     H139010   1.143   5.308   6.861 -1.0424 -0.7892  2.4823
 9576WAT     H239011   1.040   5.398   6.859 -0.3138  0.1838 -1.9382
 9576WAT    EPW39012   1.068   5.325   6.849 -0.0056 -0.1819 -0.4827
 9577WAT      O39013   1.841   3.243   5.774  0.0748 -0.1141 -0.1829
 9577WAT     H139014   1.775   3.292   5.806  0.6829  0.8180 -0.3161
 9577WAT     H239015   1.840   3.172   5.825 -0.3947  0.3386  0.4609
 9577WAT    EPW39016   1.831   3.240   5.786  0.1450 -0.1210 -0.0763
 9578WAT      O39017   1.137   4.354   3.519  0.6044  0.4958 -0.1000
 9578WAT     H139018   1.147   4.438   3.539 -0.7811  1.0469 -1.5000
 9578WAT     H239019   1.051   4.342   3.524  0.6536 -0.4716 -1.1884
 9578WAT    EPW39020   1.126   4.365   3.522 -0.4369 -0.0456 -0.4394
 9579WAT      O39021   0.457   7.393   6.254 -0.0717 -0.9142  0.5192
 9579WAT     H139022   0.453   7.336   6.320  0.3358  0.4253  1.7426
 9579WAT     H239023   0.538   7.425   6.259  0.0702 -0.9810 -0.8357
 9579WAT    EPW39024   0.469   7.389   6.265  0.1102  0.2886 -0.5162
 9580WAT      O39025   1.971   2.638   6.254  0.0022 -0.0235  0.3332
 9580WAT     H139026   2.051   2.619   6.281  0.4111  1.6846  0.4602
 9580WAT     H239027   1.919   2.590   6.306  0.8083  1.8763  3.1862
 9580WAT    EPW39028   1.975   2.628   6.266 -0.3577  0.6069 -0.2209
 9581WAT      O39029   1.827   6.912   0.318  1.1327 -0.1966  0.2330
 9581WAT     H139030   1.835   6.993   0.288  1.3738 -0.2179  0.2383
 9581WAT     H239031   1.878   6.865   0.264  0.5209 -0.4349 -0.1442
 9581WAT    EPW39032   1.836   6.917   0.305  0.5198  0.3689 -0.5716
 9582WAT      O39033   4.424   6.806   1.266 -0.1039 -0.1420  0.5755
 9582WAT     H139034   4.484   6.868   1.273 -0.1578 -0.2150  1.8412
 9582WAT     H239035   4.465   6.734   1.295  0.4928 -1.1275 -2.2882
 9582WAT    EPW39036   4.439   6.804   1.271 -0.6511 -0.8056  0.1922
 9583WAT      O39037   1.037   4.681   5.533  0.4735 -0.5674 -0.3234
 9583WAT     H139038   1.081   4.751   5.561 -0.0680 -1.0540  1.9434
 9583WAT     H239039   0.958   4.712   5.514  0.9847 -0.1447 -2.0107
 9583WAT    EPW39040   1.032   4.696   5.534  0.6121 -0.6511 -0.1440
 9584WAT      O39041   5.091   3.512   0.831  0.1421  0.4779  0.1914
 9584WAT     H139042   5.053   3.549   0.762 -2.7635 -1.4891  0.5233
 9584WAT     H239043   5.041   3.538   0.898  3.3941  3.0755  1.9106
 9584WAT    EPW39044   5.078   3.521   0.830 -0.3443 -0.0399 -0.1198
 9585WAT      O39045   5.260   4.222   7.147 -0.2148  0.1368 -0.5712
 9585WAT     H139046   5.299   4.262   7.213 -0.1893 -0.6582 -0.0869
 9585WAT     H239047   5.322   4.169   7.115 -1.1166 -1.9015  0.8531
 9585WAT    EPW39048   5.275   4.220   7.152  0.0706  0.4317 -0.5836
 9586WAT      O39049   5.899   2.547   5.243 -0.0588 -0.3631  0.4992
 9586WAT     H139050   5.838   2.518   5.298 -0.2221  0.8265  0.9835
 9586WAT     H239051   5.878   2.631   5.231  1.4264  0.0597  0.6099
 9586WAT    EPW39052   5.887   2.555   5.249  0.0891 -0.0246 -0.1993
 9587WAT      O39053   1.929   2.368   3.778  0.3170 -0.2490  0.3618
 9587WAT     H139054   1.853   2.410   3.786 -0.0093 -0.4377 -1.3099
 9587WAT     H239055   1.977   2.421   3.727  1.0132 -0.5012  0.7410
 9587WAT    EPW39056   1.925   2.382   3.772 -0.7718  0.5886  0.1291
 9588WAT      O39057   1.651   4.796   1.359  0.1044  0.0609 -0.1032
 9588WAT     H139058   1.582   4.743   1.360 -0.3700  0.6243  1.7318
 9588WAT     H239059   1.622   4.868   1.399  0.3025  2.3644 -3.6261
 9588WAT    EPW39060   1.637   4.799   1.365  0.1223  0.1650 -0.1309
 9589WAT      O39061   5.300   5.871   0.346 -0.1932 -0.3065 -0.6291
 9589WAT     H139062   5.375   5.912   0.363  0.6472 -1.6925 -0.8384
 9589WAT     H239063   5.247   5.900   0.408  0.8710 -0.2142  0.2739
 9589WAT    EPW39064   5.303   5.881   0.358 -0.2341  0.1888 -0.2746
 9590WAT      O39065   0.733   0.308   3.525  0.4500  0.5324 -0.4548
 9590WAT     H139066   0.680   0.360   3.571 -0.8177 -0.8683 -0.2594
 9590WAT     H239067   0.756   0.247   3.583 -1.0898 -1.2107 -1.5732
 9590WAT    EPW39068   0.729   0.307   3.540 -0.4399 -0.2765 -0.3846
 9591WAT      O39069   6.058   0.341   2.257  0.1477 -0.7655  0.0561
 9591WAT     H139070   6.119   0.289   2.292 -0.4444 -1.6801 -0.2221
 9591WAT     H239071   5.987   0.290   2.255 -0.3899 -0.0142 -0.4547
 9591WAT    EPW39072   6.056   0.326   2.262  0.7124  0.2967 -0.4277
 9592WAT      O39073   3.324   6.308   3.186 -0.1611 -0.5026  0.0934
 9592WAT     H139074   3.277   6.382   3.183  1.1566  0.3879  0.5993
 9592WAT     H239075   3.377   6.320   3.254  1.5457 -0.9905 -1.0822
 9592WAT    EPW39076   3.325   6.321   3.196  0.1618 -0.3684 -0.2651
 9593WAT      O39077   1.986   7.122   3.198 -0.0621 -0.3611  0.7699
 9593WAT     H139078   1.987   7.209   3.196 -0.9120 -0.3439  0.0157
 9593WAT     H239079   1.922   7.103   3.255 -0.5520 -0.4632  0.2035
 9593WAT    EPW39080   1.976   7.132   3.206 -0.2902  0.2464 -0.0232
 9594WAT      O39081   0.884   2.212   2.006  0.3342  0.3797  0.1814
 9594WAT     H139082   0.940   2.212   2.073 -1.3700 -1.1935  1.7193
 9594WAT     H239083   0.897   2.135   1.968 -0.9727 -0.1597  0.7767
 9594WAT    EPW39084   0.894   2.201   2.011  0.1968 -0.2573 -0.5084
 9595WAT      O39085   2.913   3.397   1.467  0.2218 -0.3970  0.0242
 9595WAT     H139086   2.866   3.388   1.394 -0.0330  1.7628 -0.1376
 9595WAT     H239087   2.874   3.343   1.524  0.3904 -2.0724 -1.3782
 9595WAT    EPW39088   2.901   3.388   1.465 -0.3632  0.2091  0.2203
 9596WAT      O39089   3.873   1.061   2.222 -0.1322 -0.0431  0.6785
 9596WAT     H139090   3.839   0.983   2.204  0.2912 -0.3863  1.2946
 9596WAT     H239091   3.953   1.058   2.186 -0.3535  0.3565  0.1417
 9596WAT    EPW39092   3.880   1.049   2.214  0.1470  0.2205  0.1180
 9597WAT      O39093   1.262   3.944   1.468 -0.1050  0.1424  0.4224
 9597WAT     H139094   1.304   4.017   1.490  0.7127 -0.6245  1.5144
 9597WAT     H239095   1.323   3.895   1.429 -1.0584  0.6772 -1.8770
 9597WAT    EPW39096   1.277   3.947   1.466  0.1252  0.1194 -0.3551
 9598WAT      O39097   3.142   3.313   1.612 -0.0268  0.1129  0.1190
 9598WAT     H139098   3.055   3.323   1.606 -0.0510  0.1256  0.4837
 9598WAT     H239099   3.157   3.238   1.571 -0.2797 -0.1928  0.5884
 9598WAT    EPW39100   3.131   3.304   1.605 -0.0940 -0.0979  0.2997
 9599WAT      O39101   1.522   5.182   4.786  0.1338  0.3152  0.1509
 9599WAT     H139102   1.516   5.096   4.772  0.4693 -0.0374  1.9108
 9599WAT     H239103   1.606   5.199   4.770  0.3731  0.0361  1.0290
 9599WAT    EPW39104   1.534   5.172   4.782 -0.3919 -0.0972  0.4084
 9600WAT      O39105   2.317   1.270   0.187 -0.0577  0.1537 -0.1027
 9600WAT     H139106   2.259   1.206   0.203 -1.0819  1.0078 -0.2484
 9600WAT     H239107   2.315   1.318   0.260  0.9482 -0.1477  0.1330
 9600WAT    EPW39108   2.308   1.268   0.200 -0.6851 -0.1722 -0.1247
 9601WAT      O39109   7.500   1.043   0.439 -0.1274  0.0692 -0.3398
 9601WAT     H139110   7.573   0.996   0.435  0.3109  0.6178  0.9683
 9601WAT     H239111   7.438   0.983   0.456  0.0815 -0.3118 -0.8796
 9601WAT    EPW39112   7.501   1.027   0.441  0.4763  0.6848  0.1488
 9602WAT      O39113   3.623   4.854   6.474  0.2357  0.2920 -0.3192
 9602WAT     H139114   3.608   4.940   6.481 -0.9991  0.0267  0.7314
 9602WAT     H239115   3.552   4.823   6.436 -0.6546 -0.5978  1.8780
 9602WAT    EPW39116   3.610   4.862   6.470  0.2658  0.3019 -0.0535
 9603WAT      O39117   0.285   7.278   5.656 -0.0913  0.1465  0.1786
 9603WAT     H139118   0.324   7.211   5.618 -2.4356 -2.6620  2.2669
 9603WAT     H239119   0.240   7.315   5.592  1.5228  0.0029 -1.0915
 9603WAT    EPW39120   0.284   7.274   5.641  0.1558 -0.0396 -0.0330
 9604WAT      O39121   2.353   3.109   2.224  0.5906  0.1486  0.3805
 9604WAT     H139122   2.351   3.095   2.310  1.8587 -1.3416  0.1950
 9604WAT     H239123   2.384   3.035   2.191 -1.7394 -0.0849 -1.5833
 9604WAT    EPW39124   2.357   3.096   2.232 -0.2314 -0.3677  0.4633
 9605WAT      O39125   0.721   7.285   3.455  0.3323  0.0711 -0.7890
 9605WAT     H139126   0.644   7.269   3.417 -0.9321  0.6335  1.3433
 9605WAT     H239127   0.745   7.207   3.486 -2.1650  0.5613  3.1580
 9605WAT    EPW39128   0.713   7.271   3.454  0.2164 -0.0574 -0.5952
 9606WAT      O39129   6.702   1.262   1.053  0.5918 -0.4587 -0.6588
 9606WAT     H139130   6.721   1.229   1.132  0.5839 -2.4629 -1.4485
 9606WAT     H239131   6.630   1.309   1.068  0.9860 -0.2229  0.6562
 9606WAT    EPW39132   6.694   1.264   1.067  0.7897 -0.2596  0.0383
 9607WAT      O39133   6.757   4.564   4.795  0.3953 -0.0602  0.5850
 9607WAT     H139134   6.708   4.520   4.852  0.0066  1.4011  1.4247
 9607WAT     H239135   6.725   4.645   4.799  2.5281  0.8341  0.7663
 9607WAT    EPW39136   6.745   4.569   4.804  0.2248  0.3457 -0.2449
 9608WAT      O39137   3.007   0.614   6.314 -0.6919  0.6468  0.0784
 9608WAT     H139138   3.030   0.693   6.342 -0.9197  1.1453 -1.0604
 9608WAT     H239139   3.084   0.575   6.297 -0.5874  0.7364  0.3398
 9608WAT    EPW39140   3.022   0.620   6.315 -0.1587  0.3410  0.2907
 9609WAT      O39141   7.045   3.641   3.299 -0.1369  0.3560 -0.0954
 9609WAT     H139142   7.130   3.629   3.312 -0.1614  1.2314  1.0478
 9609WAT     H239143   7.041   3.669   3.216  0.3761 -2.2488 -1.0820
 9609WAT    EPW39144   7.057   3.644   3.288  0.0106 -0.0420  0.0443
 9610WAT      O39145   1.065   0.177   5.480  0.4549 -0.0144 -0.6997
 9610WAT     H139146   1.107   0.214   5.413  3.5028 -1.1026  0.4145
 9610WAT     H239147   1.040   0.245   5.529  0.9613  0.7018 -1.4103
 9610WAT    EPW39148   1.068   0.193   5.477  0.6016 -0.4405  0.2783
 9611WAT      O39149   4.003   6.070   5.007  0.6862 -0.1570 -0.1821
 9611WAT     H139150   4.039   6.060   4.928  1.1771  2.0164 -0.2891
 9611WAT     H239151   3.919   6.085   4.989  0.9528  1.2692 -0.4258
 9611WAT    EPW39152   3.996   6.071   4.992 -0.2321 -0.3570  0.4706
 9612WAT      O39153   6.160   2.388   4.710 -0.0145 -0.5514 -0.7712
 9612WAT     H139154   6.078   2.359   4.707 -0.7851  1.1849  1.1094
 9612WAT     H239155   6.151   2.473   4.725  2.0645 -0.6936  2.0214
 9612WAT    EPW39156   6.147   2.396   4.712  0.0699 -0.6529  0.0342
 9613WAT      O39157   3.825   6.667   1.285 -0.5799 -0.1138 -0.5209
 9613WAT     H139158   3.849   6.729   1.341 -1.0286 -0.2064 -0.2148
 9613WAT     H239159   3.739   6.661   1.298 -0.3986 -1.5466  0.2374
 9613WAT    EPW39160   3.816   6.675   1.296  0.0882 -0.4797 -0.0363
 9614WAT      O39161   0.508   2.304   1.914 -0.1584 -0.1197 -0.7795
 9614WAT     H139162   0.427   2.280   1.936  0.1697 -1.7044 -1.1730
 9614WAT     H239163   0.532   2.357   1.978 -1.6501  0.7001 -0.8635
 9614WAT    EPW39164   0.500   2.308   1.926 -0.5005  0.0456  0.5716
 9615WAT      O39165   0.548   7.585   1.903 -0.1694  0.5815  0.2585
 9615WAT     H139166   0.596   7.562   1.834 -1.3037  0.1363 -0.4148
 9615WAT     H239167   0.491   7.642   1.870  0.0456  1.2872  1.0885
 9615WAT    EPW39168   0.547   7.590   1.888 -0.3530  0.0374  0.0795
 9616WAT      O39169   2.038   0.876   2.201  0.0908 -0.1736  0.2536
 9616WAT     H139170   2.102   0.867   2.260  0.1456  1.9073  0.5568
 9616WAT     H239171   2.070   0.931   2.142 -0.5015 -1.1161 -1.0023
 9616WAT    EPW39172   2.052   0.882   2.201 -0.5020 -0.2871 -0.0473
 9617WAT      O39173   2.732   3.867   2.879  0.3731 -0.3587 -0.4271
 9617WAT     H139174   2.731   3.781   2.864  1.0662 -0.7223  1.4375
 9617WAT     H239175   2.799   3.878   2.933  0.3491  1.3788 -0.7094
 9617WAT    EPW39176   2.742   3.856   2.885 -0.9526  0.0845 -0.0173
 9618WAT      O39177   1.777   7.459   4.310  0.1138 -0.3218 -0.1667
 9618WAT     H139178   1.781   7.440   4.225  0.4130 -1.0227 -0.0083
 9618WAT     H239179   1.704   7.418   4.336  0.6832 -1.1542  0.1515
 9618WAT    EPW39180   1.767   7.450   4.301 -0.0906  0.2260 -0.1528
 9619WAT      O39181   1.404   2.597   3.973 -0.0629 -0.4241  0.7360
 9619WAT     H139182   1.483   2.634   3.975 -0.2650  0.3554 -1.8026
 9619WAT     H239183   1.371   2.616   4.051  2.3987 -1.2189  2.0791
 9619WAT    EPW39184   1.411   2.606   3.985  0.5205  0.3162  0.0154
 9620WAT      O39185   0.910   0.252   2.153 -0.4999  0.3391  0.6871
 9620WAT     H139186   0.864   0.240   2.080  1.5433  0.7962 -0.7901
 9620WAT     H239187   0.854   0.292   2.207 -1.6311  1.5500 -1.2520
 9620WAT    EPW39188   0.895   0.256   2.150  0.6132 -0.7888  0.2164
 9621WAT      O39189   5.677   1.792   6.843  0.4427 -0.1955  0.0075
 9621WAT     H139190   5.707   1.824   6.767 -0.1011  0.5933  0.1099
 9621WAT     H239191   5.712   1.713   6.847 -1.4869 -1.3111 -2.2900
 9621WAT    EPW39192   5.686   1.785   6.832 -0.8286  0.5896 -0.7518
 9622WAT      O39193   1.425   2.908   0.060  0.0938 -0.1063 -0.2120
 9622WAT     H139194   1.455   2.857   0.124 -0.7502 -2.5591 -1.6304
 9622WAT     H239195   1.338   2.904   0.069 -0.0151  0.0656 -1.0676
 9622WAT    EPW39196   1.416   2.900   0.070 -0.1132  0.5855  0.3047
 9623WAT      O39197   7.485   7.226   2.467  0.2444 -0.2344 -0.6156
 9623WAT     H139198   7.449   7.147   2.459  0.2732 -0.8798  3.3891
 9623WAT     H239199   7.562   7.218   2.427 -0.0211 -2.0306 -0.8567
 9623WAT    EPW39200   7.491   7.213   2.460 -0.1528  0.7121  0.3207
 9624WAT      O39201   6.726   7.324   1.827 -0.0706 -0.5700  0.7983
 9624WAT     H139202   6.668   7.375   1.787 -0.7860 -0.1940  2.2639
 9624WAT     H239203   6.678   7.255   1.852  0.4791 -1.0471  0.5734
 9624WAT    EPW39204   6.710   7.321   1.825 -0.2425  0.6451  0.0999
 9625WAT      O39205   1.863   6.147   7.314 -0.8187  0.4482 -0.4711
 9625WAT     H139206   1.891   6.166   7.395 -2.9925 -1.8786  0.9899
 9625WAT     H239207   1.861   6.224   7.274  3.5297  1.3047  0.4730
 9625WAT    EPW39208   1.867   6.161   7.320 -0.5437 -0.1823 -0.1871
 9626WAT      O39209   1.488   4.627   6.525 -0.6346 -0.3797  0.2679
 9626WAT     H139210   1.555   4.583   6.560 -0.6911 -0.5354  0.1815
 9626WAT     H239211   1.471   4.689   6.584  0.9903  1.0458 -0.6696
 9626WAT    EPW39212   1.495   4.630   6.539 -0.1915 -0.1502  0.5072
 9627WAT      O39213   6.430   4.575   5.149 -0.4812  0.1958  0.3413
 9627WAT     H139214   6.407   4.570   5.233 -1.3311 -1.1082  0.0726
 9627WAT     H239215   6.369   4.627   5.114 -1.2261 -0.7199  0.2220
 9627WAT    EPW39216   6.417   4.582   5.156 -0.1082  0.0817 -0.4173
 9628WAT      O39217   0.783   7.017   2.657 -0.2197 -0.2345  0.3259
 9628WAT     H139218   0.739   7.074   2.607 -1.0265 -1.2706 -0.2016
 9628WAT     H239219   0.863   7.017   2.622  0.2524  1.6869  1.3017
 9628WAT    EPW39220   0.788   7.025   2.644 -0.2467  0.2748  0.4537
 9629WAT      O39221   5.086   0.685   4.630 -0.0679  0.0511  0.7060
 9629WAT     H139222   5.055   0.712   4.553 -1.6933  0.7352  1.5549
 9629WAT     H239223   5.156   0.736   4.643 -0.6431  0.9452  0.3518
 9629WAT    EPW39224   5.092   0.697   4.620  0.4745 -0.1749 -1.1505
 9630WAT      O39225   2.461   5.427   6.901 -0.1064  0.3524  0.8139
 9630WAT     H139226   2.437   5.394   6.979 -0.1718  0.9432  1.0483
 9630WAT     H239227   2.459   5.513   6.914 -1.2939  0.4956 -0.1987
 9630WAT    EPW39228   2.457   5.435   6.915  0.3681 -0.3133 -0.1987
 9631WAT      O39229   3.201   4.093   6.707  0.5232 -0.0394 -0.2063
 9631WAT     H139230   3.154   4.020   6.697  0.4462 -0.0026 -0.1189
 9631WAT     H239231   3.159   4.135   6.771  1.4623 -0.6174  0.8038
 9631WAT    EPW39232   3.188   4.089   6.715 -0.4069 -0.0475  0.1991
 9632WAT      O39233   6.705   4.958   3.454  0.0134 -0.1044  0.1384
 9632WAT     H139234   6.676   5.023   3.404  0.1569 -0.9509 -1.0950
 9632WAT     H239235   6.735   4.998   3.525 -0.1876  1.1468 -0.4613
 9632WAT    EPW39236   6.705   4.973   3.457  0.5061 -0.2148 -0.0713
 9633WAT      O39237   6.243   6.146   0.584 -0.2506 -0.5778  0.0032
 9633WAT     H139238   6.283   6.203   0.531  0.8465 -1.1922  0.1350
 9633WAT     H239239   6.298   6.139   0.651  0.2928 -2.6988 -0.5802
 9633WAT    EPW39240   6.257   6.153   0.586  0.2139 -0.3956  0.0912
 9634WAT      O39241   4.066   1.211   1.252 -0.3371 -0.1754  0.4954
 9634WAT     H139242   4.117   1.161   1.303  0.5350  0.5130  0.3081
 9634WAT     H239243   4.120   1.271   1.220 -1.3487  0.8739  0.6663
 9634WAT    EPW39244   4.081   1.212   1.255 -0.1989  0.0339 -0.0950
 9635WAT      O39245   5.770   2.323   6.449 -0.0271  0.7026 -0.2509
 9635WAT     H139246   5.736   2.335   6.529 -0.9681  0.6569 -0.6291
 9635WAT     H239247   5.845   2.282   6.465 -0.2036  0.6881  0.6167
 9635WAT    EPW39248   5.776   2.319   6.463 -0.6414  0.4840 -0.5114
 9636WAT      O39249   3.424   3.781   7.202 -0.1083 -0.5781  0.1587
 9636WAT     H139250   3.342   3.756   7.216 -0.2806 -0.4503 -0.6079
 9636WAT     H239251   3.417   3.851   7.151  0.4137  0.4900  1.4772
 9636WAT    EPW39252   3.411   3.788   7.197  0.3479 -0.0878 -0.0708
 9637WAT      O39253   2.152   2.243   4.435 -0.0691  0.5044 -0.1267
 9637WAT     H139254   2.091   2.297   4.404  0.2254  0.2452 -1.2194
 9637WAT     H239255   2.162   2.184   4.371  1.3086  0.5330  0.0168
 9637WAT    EPW39256   2.145   2.242   4.421  0.2274 -0.7631 -0.3242
 9638WAT      O39257   6.405   1.564   0.567  0.0737  0.2085  0.2236
 9638WAT     H139258   6.480   1.551   0.525 -0.0002  0.9623 -0.1705
 9638WAT     H239259   6.424   1.545   0.650  1.1590  1.8657  0.4137
 9638WAT    EPW39260   6.419   1.559   0.573  0.3331 -0.1659  0.2214
 9639WAT      O39261   0.075   4.638   6.267  0.2949  0.5311 -0.0833
 9639WAT     H139262  -0.004   4.638   6.304 -0.0536  2.2811 -0.7307
 9639WAT     H239263   0.126   4.674   6.328  0.2753  0.8521 -0.2563
 9639WAT    EPW39264   0.071   4.644   6.282 -0.0642  0.3182 -0.0620
 9640WAT      O39265   4.494   5.331   6.108  0.0586 -0.0174 -0.6072
 9640WAT     H139266   4.459   5.410   6.115 -1.0192 -0.5328 -0.0206
 9640WAT     H239267   4.504   5.320   6.022 -0.4998  0.4392 -0.7323
 9640WAT    EPW39268   4.491   5.341   6.097 -0.3125  0.0785 -0.1192
 9641WAT      O39269   3.078   4.395   0.512  0.0452 -0.0256 -0.5088
 9641WAT     H139270   3.139   4.451   0.483  0.0951 -1.2920 -3.1692
 9641WAT     H239271   3.003   4.430   0.484 -0.5413  1.1918  2.2054
 9641WAT    EPW39272   3.076   4.409   0.504 -0.1618  0.1630  0.0851
 9642WAT      O39273   0.544   5.235   4.509 -0.4570 -0.3828 -0.2820
 9642WAT     H139274   0.458   5.249   4.507 -0.7034 -1.3690  1.2608
 9642WAT     H239275   0.555   5.168   4.455 -0.6085 -0.0651 -0.7121
 9642WAT    EPW39276   0.533   5.227   4.501  0.2582  0.0774  0.4512
 9643WAT      O39277   4.152   3.163   0.704 -0.0870 -0.3907  0.2699
 9643WAT     H139278   4.100   3.199   0.763 -1.7177 -1.1012 -0.6514
 9643WAT     H239279   4.185   3.231   0.661  0.2300  0.0864  1.2405
 9643WAT    EPW39280   4.150   3.178   0.706  0.3451  0.2197  0.0333
 9644WAT      O39281   1.679   1.906   6.361  0.8216 -0.2238  0.0470
 9644WAT     H139282   1.751   1.924   6.314  0.2504  1.1526 -0.3574
 9644WAT     H239283   1.650   1.832   6.325  1.9914 -0.7878  0.1925
 9644WAT    EPW39284   1.686   1.897   6.348  0.1151 -0.3304  0.2263
 9645WAT      O39285   6.554   5.307   4.981  0.2631 -0.3925  0.1569
 9645WAT     H139286   6.482   5.277   4.942 -0.4629  0.9104  0.4510
 9645WAT     H239287   6.578   5.374   4.931  2.2397 -1.7361 -0.8534
 9645WAT    EPW39288   6.547   5.312   4.968 -0.0497  0.0592  0.2944
 9646WAT      O39289   5.175   4.932   3.374 -0.3020  0.0817  0.4871
 9646WAT     H139290   5.158   4.951   3.291 -0.3882  1.2546  0.7569
 9646WAT     H239291   5.220   4.858   3.369  1.1644  0.9890 -0.7294
 9646WAT    EPW39292   5.179   4.924   3.361  0.0555 -0.1583 -0.2697
 9647WAT      O39293   5.383   7.275   7.591  0.2770 -0.6190 -0.4418
 9647WAT     H139294   5.448   7.283   7.649 -0.5249 -0.0132  0.4182
 9647WAT     H239295   5.373   7.189   7.583  0.8668 -0.7124 -0.2178
 9647WAT    EPW39296   5.391   7.264   7.599  0.3612  0.2118 -0.0867
 9648WAT      O39297   2.427   2.415   3.890 -0.1872  0.7656  0.1806
 9648WAT     H139298   2.448   2.410   3.805 -1.0093  1.1696 -0.0478
 9648WAT     H239299   2.488   2.365   3.928  0.6594  1.1966 -0.5575
 9648WAT    EPW39300   2.439   2.407   3.883 -0.1734  0.4506  0.3844
 9649WAT      O39301   1.573   5.316   0.874 -0.0958 -0.1453 -0.1337
 9649WAT     H139302   1.637   5.292   0.820 -0.4948  0.0717 -0.7083
 9649WAT     H239303   1.604   5.389   0.910 -0.6230  0.8277 -1.5549
 9649WAT    EPW39304   1.587   5.323   0.871  0.2830  0.1631 -0.4156
 9650WAT      O39305   6.666   1.539   6.314  0.2510 -0.0926  0.3251
 9650WAT     H139306   6.616   1.541   6.386 -0.0805  0.8703  0.0869
 9650WAT     H239307   6.609   1.558   6.250  1.0653  2.1147  0.1598
 9650WAT    EPW39308   6.650   1.542   6.315  0.4190  0.0413 -0.1830
 9651WAT      O39309   0.036   5.704   1.992 -0.0255 -0.2282 -0.3023
 9651WAT     H139310   0.091   5.635   1.996  0.1197 -0.3986 -3.2327
 9651WAT     H239311  -0.043   5.667   1.998  0.0877 -0.4266  0.0199
 9651WAT    EPW39312   0.033   5.688   1.994  0.5077 -0.2577 -0.4282
 9652WAT      O39313   5.007   1.395   2.264 -0.1400  0.0766 -0.1832
 9652WAT     H139314   4.932   1.357   2.242  0.9919 -2.5451  0.1122
 9652WAT     H239315   5.057   1.384   2.193  0.9051 -1.0223  0.6764
 9652WAT    EPW39316   5.003   1.387   2.250 -0.7465 -0.4212 -0.0736
 9653WAT      O39317   7.556   4.278   6.103  0.7649 -0.7478  0.3080
 9653WAT     H139318   7.488   4.223   6.100  0.9767 -0.9784 -0.4844
 9653WAT     H239319   7.597   4.257   6.177  0.6120 -1.3807  0.2170
 9653WAT    EPW39320   7.552   4.267   6.114  0.2122 -0.1460 -0.1421
 9654WAT      O39321   6.430   0.135   6.850 -0.4836  0.5876 -0.0041
 9654WAT     H139322   6.487   0.168   6.907  0.9375 -1.0838 -0.3513
 9654WAT     H239323   6.395   0.067   6.892  0.9623 -0.9936 -1.1585
 9654WAT    EPW39324   6.434   0.130   6.865  0.0987  0.6360 -0.0477
 9655WAT      O39325   0.553   4.100   6.963  0.0570  0.3877 -0.6334
 9655WAT     H139326   0.622   4.091   6.911 -0.7495 -2.3301 -1.3836
 9655WAT     H239327   0.587   4.132   7.037  1.3478  3.6327 -2.4249
 9655WAT    EPW39328   0.568   4.103   6.966 -0.3097  0.1062 -0.0258
 9656WAT      O39329   6.887   5.488   2.832  0.3860  0.0467 -0.2062
 9656WAT     H139330   6.860   5.567   2.860  0.4853 -0.1482  0.4511
 9656WAT     H239331   6.974   5.494   2.835  0.3936 -0.1349 -0.0066
 9656WAT    EPW39332   6.896   5.501   2.837  0.7336  0.6082 -0.7734
 9657WAT      O39333   3.948   7.341   0.624  0.7386  0.2425 -0.4039
 9657WAT     H139334   3.949   7.428   0.618  1.7305  0.2427 -0.4303
 9657WAT     H239335   3.876   7.318   0.580  0.7480  1.0203 -0.8435
 9657WAT    EPW39336   3.938   7.351   0.617  0.5922 -0.3168 -0.4204
 9658WAT      O39337   6.226   6.141   0.151 -0.1066 -0.0401  0.7324
 9658WAT     H139338   6.170   6.128   0.217 -0.0592 -1.3819  0.5347
 9658WAT     H239339   6.204   6.220   0.120 -0.9548  0.0538  1.5492
 9658WAT    EPW39340   6.215   6.151   0.156 -0.5117  0.3461 -0.6346
 9659WAT      O39341   6.128   0.982   0.550  0.0550 -0.6097 -0.2271
 9659WAT     H139342   6.074   0.913   0.550  0.2091 -0.7306 -0.5741
 9659WAT     H239343   6.079   1.047   0.580 -0.0857 -0.8745  0.1338
 9659WAT    EPW39344   6.113   0.981   0.555 -0.1083  0.6161  0.2375
 9660WAT      O39345   6.419   5.470   5.830 -0.5144  0.0188 -0.3438
 9660WAT     H139346   6.414   5.384   5.817 -0.3052 -0.0682  0.1166
 9660WAT     H239347   6.387   5.504   5.757  1.1393 -0.4293 -1.3243
 9660WAT    EPW39348   6.414   5.462   5.817 -0.0578  0.3125 -0.2565
 9661WAT      O39349   5.114   4.446   1.366 -0.2341 -0.0109 -0.0985
 9661WAT     H139350   5.039   4.448   1.410  0.6164  1.5893  1.4534
 9661WAT     H239351   5.110   4.518   1.316  0.7082  0.7870  0.9143
 9661WAT    EPW39352   5.103   4.457   1.365  0.1572  0.5420 -0.0217
 9662WAT      O39353   0.199   1.373   6.766 -0.0517  0.4156  0.0175
 9662WAT     H139354   0.144   1.319   6.806  0.2436  0.0177 -0.1044
 9662WAT     H239355   0.278   1.340   6.787  0.1357  0.9239  0.1204
 9662WAT    EPW39356   0.203   1.360   6.775  0.3261  0.1227  0.4152
 9663WAT      O39357   6.134   4.972   6.935 -1.1794  0.0380 -0.7902
 9663WAT     H139358   6.149   4.963   6.849 -1.4538  0.1179 -0.8479
 9663WAT     H239359   6.077   5.038   6.939  0.2886  1.3418 -0.4115
 9663WAT    EPW39360   6.127   4.980   6.923 -0.5535  0.3923  0.1612
 9664WAT      O39361   4.617   5.702   6.866 -0.1017 -0.1483  0.3846
 9664WAT     H139362   4.605   5.624   6.904  0.1808 -0.5539 -0.3342
 9664WAT     H239363   4.539   5.719   6.830 -0.9744  1.1363  2.6921
 9664WAT    EPW39364   4.603   5.693   6.866  0.2285 -0.2523 -0.1524
 9665WAT      O39365   3.012   2.256   3.025  0.6094 -0.0494  0.2282
 9665WAT     H139366   2.940   2.207   3.028  0.6392 -0.4565 -2.9856
 9665WAT     H239367   3.054   2.234   3.099 -0.9834 -2.2589  0.5889
 9665WAT    EPW39368   3.008   2.245   3.037 -0.3063 -0.0312  0.8278
 9666WAT      O39369   1.847   4.570   0.922 -0.2000 -0.2187  0.2500
 9666WAT     H139370   1.923   4.560   0.881 -0.5093  0.3809 -0.4979
 9666WAT     H239371   1.852   4.652   0.953  0.6482 -1.1183  2.7651
 9666WAT    EPW39372   1.859   4.581   0.920  0.7424  0.0907  0.4190
 9667WAT      O39373   3.605   7.518   0.364 -0.0778  0.1172 -0.3313
 9667WAT     H139374   3.646   7.544   0.437  1.4420  0.8367 -1.3841
 9667WAT     H239375   3.566   7.591   0.335 -0.6605 -0.1615 -0.2618
 9667WAT    EPW39376   3.605   7.533   0.371 -0.1313  0.1843  0.0667
 9668WAT      O39377   6.454   1.404   2.118 -0.1613 -0.1238  0.1831
 9668WAT     H139378   6.415   1.397   2.196  0.3760  2.0754  0.7137
 9668WAT     H239379   6.397   1.452   2.071 -0.4169 -1.3015 -0.7845
 9668WAT    EPW39380   6.440   1.410   2.122 -0.2585  0.2364  0.1681
 9669WAT      O39381   0.196   4.127   7.256  0.0959  0.2106  0.3663
 9669WAT     H139382   0.189   4.205   7.218  0.0381 -0.1504 -0.3847
 9669WAT     H239383   0.232   4.077   7.194  1.0727 -0.1177  1.1760
 9669WAT    EPW39384   0.200   4.131   7.241  0.3671  0.0898 -0.0326
 9670WAT      O39385   7.366   6.975   2.450  0.3205 -0.1534 -0.0839
 9670WAT     H139386   7.340   6.943   2.527  0.8072  1.4498  0.7932
 9670WAT     H239387   7.420   6.913   2.419  0.8627 -0.4245  1.3181
 9670WAT    EPW39388   7.370   6.961   2.457 -0.1055  0.1725 -0.4647
 9671WAT      O39389   6.563   1.607   3.929 -0.0116 -0.1800 -0.1112
 9671WAT     H139390   6.607   1.540   3.894  0.7259 -0.5168  1.3796
 9671WAT     H239391   6.588   1.675   3.880 -0.3910 -0.8833 -1.3328
 9671WAT    EPW39392   6.574   1.607   3.916 -0.7655 -0.1621  0.1876
 9672WAT      O39393   2.042   6.190   5.993 -0.5598 -0.0890 -0.1963
 9672WAT     H139394   2.058   6.120   6.043 -1.0412  0.3244  0.5656
 9672WAT     H239395   2.119   6.208   5.956  0.2931  0.6798  1.8102
 9672WAT    EPW39396   2.055   6.182   5.995  0.3326 -0.7101  0.1388
 9673WAT      O39397   1.025   6.003   5.469  0.2203 -0.3215  0.0388
 9673WAT     H139398   0.996   6.020   5.550  1.4379  0.1797  0.4007
 9673WAT     H239399   1.074   5.931   5.480  0.4666 -0.1953 -0.2194
 9673WAT    EPW39400   1.028   5.995   5.483 -0.3362  0.2340  0.1962
 9674WAT      O39401   0.869   1.450   1.914 -0.1157  0.2493 -0.4721
 9674WAT     H139402   0.859   1.525   1.870 -0.0506  0.0642 -0.8042
 9674WAT     H239403   0.948   1.422   1.888 -0.6879 -0.5898 -1.3472
 9674WAT    EPW39404   0.879   1.457   1.903  0.0626 -0.0152  0.0314
 9675WAT      O39405   3.523   3.416   7.059 -0.0743 -0.8206 -0.0744
 9675WAT     H139406   3.545   3.450   7.136 -0.3417 -0.0944 -0.3022
 9675WAT     H239407   3.595   3.377   7.032 -0.2218 -1.8065  0.9129
 9675WAT    EPW39408   3.537   3.415   7.066  0.2721  0.0867 -0.5789
 9676WAT      O39409   4.966   0.670   7.040  0.0073  0.3030  0.1807
 9676WAT     H139410   4.926   0.613   7.092  1.7981  0.5133  1.8965
 9676WAT     H239411   4.951   0.639   6.960 -1.1298 -1.1659  0.9185
 9676WAT    EPW39412   4.958   0.657   7.036  0.5066  0.0434  0.1854
 9677WAT      O39413   1.039   5.357   7.170 -0.4261  0.1063  0.0836
 9677WAT     H139414   0.995   5.354   7.094 -0.8860 -0.3656  0.3669
 9677WAT     H239415   0.984   5.397   7.224 -0.0738  0.4946  0.1602
 9677WAT    EPW39416   1.025   5.363   7.167 -0.1198  0.0580  0.4303
 9678WAT      O39417   0.802   1.847   3.577 -0.5731 -0.0438  0.0863
 9678WAT     H139418   0.886   1.850   3.602 -0.4858  0.6068 -0.2699
 9678WAT     H239419   0.800   1.780   3.522  0.2612  1.3650 -1.7977
 9678WAT    EPW39420   0.814   1.838   3.573  0.4752  0.6297  0.5751
 9679WAT      O39421   6.371   2.561   3.321 -0.0096 -0.4943 -0.6867
 9679WAT     H139422   6.316   2.531   3.382  0.1216 -0.1437 -0.3840
 9679WAT     H239423   6.334   2.538   3.246 -0.1322 -1.0119 -0.4724
 9679WAT    EPW39424   6.358   2.553   3.319  0.1370 -0.5169  0.1840
 9680WAT      O39425   2.785   5.463   4.534 -0.0390  0.0827 -0.2665
 9680WAT     H139426   2.850   5.408   4.518  0.5216  0.5617  0.2923
 9680WAT     H239427   2.796   5.526   4.474  0.0743  0.2049 -0.1204
 9680WAT    EPW39428   2.796   5.464   4.523  0.0202  0.1998 -0.2768
 9681WAT      O39429   5.628   3.689   4.251  0.1808 -0.8204  0.0266
 9681WAT     H139430   5.656   3.752   4.306 -0.2958 -0.9959  0.4755
 9681WAT     H239431   5.545   3.676   4.275  0.2658 -1.6079 -0.0787
 9681WAT    EPW39432   5.620   3.697   4.263  0.0590  0.2755  0.2249
 9682WAT      O39433   3.561   7.217   3.030 -0.0571 -0.5211  0.4237
 9682WAT     H139434   3.601   7.162   2.975  1.5769 -0.6534  1.6339
 9682WAT     H239435   3.615   7.285   3.033 -1.0204  0.2456  0.5098
 9682WAT    EPW39436   3.575   7.219   3.023  0.1845 -0.8014  0.0264
 9683WAT      O39437   4.532   5.974   0.785 -0.6872  0.4329  0.5777
 9683WAT     H139438   4.594   5.959   0.725 -0.3708  1.4354  0.6376
 9683WAT     H239439   4.467   5.921   0.761 -0.6753  1.0262 -0.8228
 9683WAT    EPW39440   4.532   5.964   0.773  0.1075  0.0766  0.0326
 9684WAT      O39441   4.877   2.941   1.274 -0.4697 -0.2701  0.0875
 9684WAT     H139442   4.953   2.930   1.232  0.2632  0.0910  1.2712
 9684WAT     H239443   4.867   2.866   1.318 -1.0764 -0.5192 -0.4433
 9684WAT    EPW39444   4.887   2.928   1.274  0.2124  0.1280  0.7112
 9685WAT      O39445   5.788   4.712   4.501  0.3215  0.1219  0.3519
 9685WAT     H139446   5.727   4.747   4.552 -0.5679 -0.5310 -0.2220
 9685WAT     H239447   5.824   4.780   4.460  0.6347  0.5936  1.3789
 9685WAT    EPW39448   5.785   4.727   4.502  0.2882 -0.4262  0.3193
 9686WAT      O39449   3.573   0.021   3.353  0.2836 -0.1754 -1.0174
 9686WAT     H139450   3.564   0.034   3.267  0.9770 -0.9502 -1.2219
 9686WAT     H239451   3.541   0.094   3.388  2.1187  1.1895 -2.0106
 9686WAT    EPW39452   3.567   0.033   3.345  0.2411  0.0721 -0.6963
 9687WAT      O39453   0.460   3.134   1.913  0.1715 -0.4540 -0.3180
 9687WAT     H139454   0.451   3.072   1.851 -0.4645  0.3623 -1.0725
 9687WAT     H239455   0.378   3.162   1.925  0.5484  0.7764 -0.5598
 9687WAT    EPW39456   0.446   3.129   1.905 -0.0685  0.2162 -0.0803
 9688WAT      O39457   7.377   5.233   7.427  0.5838  0.3907  0.0677
 9688WAT     H139458   7.309   5.265   7.472  1.5811 -1.2773  3.0428
 9688WAT     H239459   7.342   5.207   7.352 -2.1869 -0.6596  1.5801
 9688WAT    EPW39460   7.362   5.234   7.422  1.0798  0.5005  0.0285
 9689WAT      O39461   0.854   2.722   3.077  0.4805  0.2915  0.0135
 9689WAT     H139462   0.795   2.691   3.133  0.6885  1.0771  0.6857
 9689WAT     H239463   0.810   2.785   3.034  0.4255 -0.0698 -0.4739
 9689WAT    EPW39464   0.838   2.727   3.079 -0.5026  0.3056  0.6066
 9690WAT      O39465   2.488   7.041   6.187 -0.6487 -0.2206 -0.3834
 9690WAT     H139466   2.571   7.066   6.201 -0.1209 -0.3861 -2.7796
 9690WAT     H239467   2.495   6.973   6.134 -2.3189 -1.6481  1.0706
 9690WAT    EPW39468   2.501   7.035   6.182 -0.8479  0.3243  0.6510
 9691WAT      O39469   6.228   0.632   1.292 -0.3112  0.0892 -0.0624
 9691WAT     H139470   6.169   0.687   1.259  0.3412  1.6662  1.2555
 9691WAT     H239471   6.203   0.621   1.375 -0.0730 -1.1269 -0.1287
 9691WAT    EPW39472   6.216   0.638   1.299 -0.2402  0.0050 -0.0508
 9692WAT      O39473   7.258   4.576   1.975  0.6710  0.0183 -0.3974
 9692WAT     H139474   7.291   4.617   2.045  0.8933 -1.3311  0.3206
 9692WAT     H239475   7.175   4.559   1.999  0.4867  0.3184 -0.8154
 9692WAT    EPW39476   7.250   4.580   1.989  0.4190  0.6299  0.8313
 9693WAT      O39477   1.501   2.915   2.678  0.4378  0.1445 -0.4343
 9693WAT     H139478   1.443   2.850   2.667 -0.5540  0.6341  1.4042
 9693WAT     H239479   1.522   2.908   2.763  1.2316  1.4829 -0.5059
 9693WAT    EPW39480   1.496   2.904   2.689  0.0782  0.0423  1.0411
 9694WAT      O39481   7.191   4.252   4.580 -0.0438 -0.3513  0.2242
 9694WAT     H139482   7.217   4.335   4.576  0.7307 -0.6252 -0.7346
 9694WAT     H239483   7.140   4.250   4.650 -1.4014  1.3020 -0.6394
 9694WAT    EPW39484   7.187   4.264   4.590  0.0664 -0.1138  0.2750
 9695WAT      O39485   4.927   2.332   3.195  0.1462  0.5418 -0.2270
 9695WAT     H139486   4.979   2.370   3.253 -0.8124  1.3964  0.1072
 9695WAT     H239487   4.909   2.395   3.139  0.7478 -0.1793 -1.2551
 9695WAT    EPW39488   4.932   2.347   3.196  0.3010  0.5511 -0.0596
 9696WAT      O39489   3.351   4.797   1.412  0.0503 -0.2441 -0.3793
 9696WAT     H139490   3.405   4.864   1.428 -1.4691  1.1743 -1.0037
 9696WAT     H239491   3.388   4.731   1.456  1.4263  1.0604  0.5288
 9696WAT    EPW39492   3.365   4.797   1.421 -0.6023 -0.2752 -0.0507
 9697WAT      O39493   1.712   6.552   7.492  0.2249 -0.5840  0.5441
 9697WAT     H139494   1.799   6.545   7.495  0.2870  0.1912  1.0163
 9697WAT     H239495   1.699   6.618   7.437 -0.0333 -0.2788  0.9669
 9697WAT    EPW39496   1.723   6.561   7.484  1.1532 -0.0597  0.1066
 9698WAT      O39497   7.583   7.009   0.865  0.0563  0.5548  0.3160
 9698WAT     H139498   7.658   7.031   0.825  0.6622  0.9268  1.6215
 9698WAT     H239499   7.588   7.050   0.942 -1.4664  0.5255  0.4534
 9698WAT    EPW39500   7.595   7.018   0.870 -0.1887 -0.3151  0.5684
 9699WAT      O39501   4.376   3.934   0.363  0.1815  0.1812  0.2626
 9699WAT     H139502   4.398   3.949   0.280  0.3563  0.3489  0.3384
 9699WAT     H239503   4.446   3.961   0.408  0.0389  0.2041  0.4719
 9699WAT    EPW39504   4.390   3.941   0.357 -0.2542  0.1208  0.0906
 9700WAT      O39505   1.674   0.260   2.427 -0.5418  0.0071  0.4098
 9700WAT     H139506   1.706   0.330   2.387 -2.3391  2.3354  2.6924
 9700WAT     H239507   1.737   0.236   2.482 -0.9068  1.7177  1.6473
 9700WAT    EPW39508   1.688   0.267   2.429 -0.2150  0.4102 -0.3413
 9701WAT      O39509   1.415   4.305   4.228 -0.4455  0.3982  0.2164
 9701WAT     H139510   1.399   4.223   4.254  0.7570  0.2579  0.5799
 9701WAT     H239511   1.478   4.332   4.282  0.0002  1.1492 -0.6507
 9701WAT    EPW39512   1.422   4.297   4.239 -0.0724  0.3401  0.7325
 9702WAT      O39513   2.604   3.399   2.506 -0.1265 -0.6719  0.3367
 9702WAT     H139514   2.659   3.377   2.442  1.1062 -1.9549  1.7482
 9702WAT     H239515   2.594   3.485   2.497  1.2566 -0.5866 -0.6452
 9702WAT    EPW39516   2.611   3.409   2.496 -0.0705 -0.0624  0.1812
 9703WAT      O39517   3.850   6.054   2.373 -0.1840  0.2764  0.2083
 9703WAT     H139518   3.936   6.051   2.358 -0.2859 -0.1254 -0.3081
 9703WAT     H239519   3.822   5.976   2.347 -0.4856 -0.2173  1.8664
 9703WAT    EPW39520   3.859   6.042   2.367  0.1846 -0.6551 -0.5883
 9704WAT      O39521   3.643   1.828   2.573  0.3641 -0.5458 -0.4338
 9704WAT     H139522   3.681   1.883   2.517 -0.3719 -1.1522 -1.5595
 9704WAT     H239523   3.616   1.880   2.638  1.0224  0.2010 -0.7400
 9704WAT    EPW39524   3.645   1.844   2.574 -0.2045 -0.8366  0.0143
 9705WAT      O39525   0.850   4.318   0.909 -0.0995  0.3172 -0.0916
 9705WAT     H139526   0.880   4.304   0.828  0.1886 -1.0354  0.2252
 9705WAT     H239527   0.876   4.247   0.952  0.1301  1.2263  1.2995
 9705WAT    EPW39528   0.858   4.305   0.903 -0.4580 -0.4525  0.1474
 9706WAT      O39529   6.951   0.745   6.300  0.1354  0.1464  0.3052
 9706WAT     H139530   6.956   0.811   6.357  2.1945 -0.8364  1.3873
 9706WAT     H239531   7.015   0.691   6.326 -2.6685 -3.3088  0.7159
 9706WAT    EPW39532   6.961   0.747   6.312 -0.2022 -0.5499  0.4638
 9707WAT      O39533   4.699   1.715   3.954  0.0566 -0.4744  0.5462
 9707WAT     H139534   4.668   1.771   3.895  0.2072  0.4530  1.3181
 9707WAT     H239535   4.684   1.637   3.918  0.7777  0.0702 -1.0122
 9707WAT    EPW39536   4.692   1.712   3.940  0.2151  0.0274 -0.3499
 9708WAT      O39537   1.333   3.153   2.677 -0.3065  0.1379 -0.0639
 9708WAT     H139538   1.340   3.223   2.729  0.7976 -0.6103  0.8381
 9708WAT     H239539   1.396   3.100   2.706 -0.0764 -0.5750 -1.7715
 9708WAT    EPW39540   1.343   3.156   2.689  0.4250  0.0794  0.2105
 9709WAT      O39541   3.219   3.106   1.448 -0.2635 -0.0219  0.2527
 9709WAT     H139542   3.141   3.098   1.410 -1.4495  0.9940  2.2819
 9709WAT     H239543   3.270   3.135   1.384 -1.7087 -0.0660 -0.9919
 9709WAT    EPW39544   3.215   3.109   1.433 -0.0903 -0.1876 -0.4208
 9710WAT      O39545   6.661   2.173   0.409  0.1179  0.1919 -0.3828
 9710WAT     H139546   6.632   2.168   0.491 -0.7749 -0.2082 -0.7012
 9710WAT     H239547   6.745   2.150   0.414 -0.0042 -0.0942  0.3721
 9710WAT    EPW39548   6.669   2.169   0.422 -0.3775  0.1602  0.5295
 9711WAT      O39549   4.598   5.821   5.313  0.3445 -0.5766 -0.5955
 9711WAT     H139550   4.539   5.768   5.349  0.5054  0.5012  1.3562
 9711WAT     H239551   4.674   5.789   5.341  0.4437  0.6665  0.6436
 9711WAT    EPW39552   4.601   5.808   5.322 -0.9209 -0.1354 -0.6148
 9712WAT      O39553   1.637   6.955   4.846  0.0874  0.1483  0.1077
 9712WAT     H139554   1.584   7.020   4.870 -1.0786  0.7602 -3.5046
 9712WAT     H239555   1.597   6.884   4.876 -0.4845  0.8438  1.0651
 9712WAT    EPW39556   1.623   6.954   4.854 -0.4995  0.2756  0.2799
 9713WAT      O39557   2.627   7.604   7.329 -0.3641 -0.4192  0.4928
 9713WAT     H139558   2.671   7.542   7.372 -0.4802 -0.6626  0.2640
 9713WAT     H239559   2.634   7.579   7.246 -0.9676 -0.4837  0.4551
 9713WAT    EPW39560   2.634   7.591   7.323 -0.3705 -0.0294 -0.2179
 9714WAT      O39561   2.122   2.143   5.095  0.1752  0.3070  0.6624
 9714WAT     H139562   2.068   2.197   5.052  2.5955  2.9258  0.5905
 9714WAT     H239563   2.152   2.090   5.033  0.0194  0.9023  0.0639
 9714WAT    EPW39564   2.118   2.143   5.080 -0.3329  0.0278 -0.3305
 9715WAT      O39565   6.486   6.718   7.056  0.6169 -0.6009 -0.4596
 9715WAT     H139566   6.520   6.781   7.106 -3.0903  1.7292 -0.4960
 9715WAT     H239567   6.493   6.647   7.105  1.7481  0.5496  1.1527
 9715WAT    EPW39568   6.492   6.717   7.070  0.3612  0.3066 -0.1401
 9716WAT      O39569   1.328   0.989   5.092  0.4441 -0.0878 -0.0477
 9716WAT     H139570   1.395   0.964   5.142  1.7339 -2.1365 -2.5418
 9716WAT     H239571   1.262   0.940   5.121  0.2148  1.1708  1.7295
 9716WAT    EPW39572   1.329   0.978   5.104 -0.1919 -0.1903  0.4774
 9717WAT      O39573   7.114   4.834   1.432 -0.0429  0.4639 -0.3310
 9717WAT     H139574   7.178   4.807   1.379  0.2525  1.1537 -0.3245
 9717WAT     H239575   7.153   4.893   1.483  0.0919 -1.2477  1.7013
 9717WAT    EPW39576   7.130   4.838   1.432 -0.0170  0.3044 -0.4876
 9718WAT      O39577   3.035   7.100   6.140 -0.2710 -0.4796 -0.6280
 9718WAT     H139578   3.054   7.034   6.086  1.3576  0.9122 -1.8429
 9718WAT     H239579   3.091   7.162   6.118  0.3500  0.2764  2.5445
 9718WAT    EPW39580   3.046   7.099   6.129  0.1013  0.8256 -0.2769
 9719WAT      O39581   4.938   4.674   0.495 -0.5269  0.3267 -0.2802
 9719WAT     H139582   5.013   4.696   0.457 -0.2688  0.5977  0.3835
 9719WAT     H239583   4.889   4.746   0.487 -0.5570  0.3036 -0.3054
 9719WAT    EPW39584   4.942   4.688   0.488 -0.2292  0.4895  0.0412
 9720WAT      O39585   7.525   6.807   0.713 -0.2063  0.6977  0.4240
 9720WAT     H139586   7.601   6.802   0.670 -0.2645  1.9837  0.1282
 9720WAT     H239587   7.539   6.871   0.771 -1.6159  2.2355 -0.8543
 9720WAT    EPW39588   7.538   6.816   0.715  0.4798 -0.1354  0.7351
 9721WAT      O39589   3.217   4.351   3.787 -0.1191  0.6381  0.2786
 9721WAT     H139590   3.275   4.403   3.827  2.1902 -1.4274 -0.1301
 9721WAT     H239591   3.267   4.300   3.737 -2.0839 -2.4528  1.2237
 9721WAT    EPW39592   3.233   4.351   3.786  0.1843 -0.6762 -0.0437
 9722WAT      O39593   3.957   6.870   1.424 -0.2630 -0.1552 -0.0797
 9722WAT     H139594   4.029   6.821   1.420  0.2259  0.4922  0.4787
 9722WAT     H239595   3.956   6.912   1.347 -0.1022 -0.2430 -0.1301
 9722WAT    EPW39596   3.967   6.869   1.412  0.5846 -0.0252 -0.2831
 9723WAT      O39597   3.732   5.836   0.698 -0.1870  0.0741  0.0480
 9723WAT     H139598   3.766   5.853   0.620  0.2314 -0.7169  0.0389
 9723WAT     H239599   3.692   5.759   0.686  0.1041 -0.1797  0.6669
 9723WAT    EPW39600   3.731   5.827   0.685 -0.2521 -0.2913  0.3748
 9724WAT      O39601   2.514   3.634   3.347  0.1115 -0.1503 -0.4709
 9724WAT     H139602   2.537   3.654   3.429  0.1211  0.8641 -0.7132
 9724WAT     H239603   2.521   3.547   3.345  0.3210 -0.1725  0.5421
 9724WAT    EPW39604   2.518   3.624   3.359  0.9380 -0.1188  0.4812
 9725WAT      O39605   6.744   5.686   6.050  0.5910 -0.3972  0.4038
 9725WAT     H139606   6.817   5.733   6.038 -0.1832  0.4374 -1.3702
 9725WAT     H239607   6.770   5.605   6.031  1.0211 -0.0673 -0.5376
 9725WAT    EPW39608   6.759   5.681   6.045  0.0393  0.4830 -0.0636
 9726WAT      O39609   1.729   4.147   2.205 -0.0147  0.2316 -0.2772
 9726WAT     H139610   1.800   4.108   2.173 -0.4471 -0.8565  0.0439
 9726WAT     H239611   1.677   4.081   2.226  0.1274  0.8876  2.4386
 9726WAT    EPW39612   1.732   4.132   2.203 -0.0952  0.0753  0.6171
 9727WAT      O39613   5.059   1.256   4.340 -0.3667  0.2176  0.3166
 9727WAT     H139614   5.135   1.217   4.322  1.3873  2.3178  2.4000
 9727WAT     H239615   5.037   1.294   4.264  0.2368 -1.0458 -0.5209
 9727WAT    EPW39616   5.067   1.256   4.326 -0.4822 -0.0441 -0.7232
 9728WAT      O39617   7.187   7.169   1.092  0.6044  0.0993 -0.0789
 9728WAT     H139618   7.170   7.095   1.050  1.1369  0.6790 -1.3635
 9728WAT     H239619   7.271   7.185   1.073  1.2535 -0.2568  2.2415
 9728WAT    EPW39620   7.197   7.161   1.083  0.0159 -0.6401  0.2835
 9729WAT      O39621   7.453   0.019   2.942  0.2245 -0.0112  0.3758
 9729WAT     H139622   7.509  -0.002   2.878  0.4015  3.0997 -0.6364
 9729WAT     H239623   7.383   0.049   2.900  0.2459  1.8787  1.5728
 9729WAT    EPW39624   7.451   0.020   2.926 -0.3439  0.3413 -0.0363
 9730WAT      O39625   7.462   6.458   3.239  0.2702 -0.1291  0.0369
 9730WAT     H139626   7.523   6.497   3.289  0.8202  0.0504 -0.7598
 9730WAT     H239627   7.426   6.400   3.294  0.7765  0.1454  0.6850
 9730WAT    EPW39628   7.466   6.455   3.255  0.1372  0.0744  0.0848
 9731WAT      O39629   2.637   3.075   2.954  0.7516  0.0741  0.2774
 9731WAT     H139630   2.663   3.136   3.011  2.3985 -0.7962  0.5098
 9731WAT     H239631   2.672   3.002   2.984  0.7431 -0.6007 -1.2558
 9731WAT    EPW39632   2.646   3.073   2.967 -0.5419  0.4481 -0.0526
 9732WAT      O39633   0.482   4.223   6.705 -0.2188  0.5471  0.5128
 9732WAT     H139634   0.485   4.228   6.792  3.1663  0.9423  0.5090
 9732WAT     H239635   0.541   4.162   6.686 -2.5659 -1.2973 -1.5247
 9732WAT    EPW39636   0.491   4.215   6.715 -0.0782  0.7537  0.7388
 9733WAT      O39637   7.612   0.932   0.933  0.1894  0.1502 -0.1510
 9733WAT     H139638   7.630   1.015   0.952 -1.6079  0.5825 -0.1603
 9733WAT     H239639   7.581   0.899   1.008 -0.0337 -0.2197 -0.3992
 9733WAT    EPW39640   7.610   0.939   0.947  0.0391  0.0684  0.1309
 9734WAT      O39641   7.229   1.716   4.230 -0.4174  0.2488  0.0347
 9734WAT     H139642   7.241   1.756   4.306 -0.6663 -2.8428  1.8791
 9734WAT     H239643   7.152   1.675   4.241 -0.6369  0.0024 -2.0266
 9734WAT    EPW39644   7.219   1.716   4.243  0.2583 -0.1292 -0.0805
 9735WAT      O39645   7.227   2.181   1.380 -0.0278  0.0180 -0.0447
 9735WAT     H139646   7.141   2.172   1.372  0.2148 -1.0507 -1.9237
 9735WAT     H239647   7.235   2.233   1.450 -2.2854  2.9851 -1.7630
 9735WAT    EPW39648   7.216   2.188   1.389  0.3053  0.5124  0.3483
 9736WAT      O39649   1.879   6.776   3.988 -0.0634  0.1258 -0.6019
 9736WAT     H139650   1.870   6.778   4.075 -1.3383  0.9064 -0.7250
 9736WAT     H239651   1.819   6.719   3.962 -1.1831  1.4593 -1.0895
 9736WAT    EPW39652   1.868   6.768   3.997 -0.0445  0.7220  1.1347
 9737WAT      O39653   3.385   2.625   2.039 -0.0052 -0.3484  0.1627
 9737WAT     H139654   3.402   2.560   1.983  0.0420  0.3382 -0.6456
 9737WAT     H239655   3.410   2.593   2.116 -0.9669 -1.6817 -0.0378
 9737WAT    EPW39656   3.391   2.610   2.042  0.1275  0.5792 -0.2709
 9738WAT      O39657   7.052   4.836   4.845  0.2061 -0.0853  0.2434
 9738WAT     H139658   7.035   4.910   4.802  0.8613  0.4470  0.8799
 9738WAT     H239659   6.974   4.812   4.876  0.3666  1.9481  2.5479
 9738WAT    EPW39660   7.038   4.843   4.843 -0.4801  0.1742  0.0020
 9739WAT      O39661   2.392   1.004   0.454 -0.1900  0.1084 -0.1086
 9739WAT     H139662   2.378   0.921   0.478 -3.3985 -0.1133 -2.0613
 9739WAT     H239663   2.337   1.015   0.387  0.9333  3.5151 -0.6635
 9739WAT    EPW39664   2.382   0.993   0.448  0.1721 -0.3268  0.3639
 9740WAT      O39665   3.055   4.707   7.418 -0.2673 -0.5924  0.4582
 9740WAT     H139666   3.039   4.792   7.428  2.2390  0.0177  0.1127
 9740WAT     H239667   3.126   4.706   7.367 -1.0676 -2.9642 -0.7763
 9740WAT    EPW39668   3.063   4.720   7.412  0.2375  0.3006 -0.2937
 9741WAT      O39669   5.425   6.811   7.405 -0.0332  0.1800  0.2387
 9741WAT     H139670   5.355   6.792   7.453 -0.0841 -0.6397 -0.1343
 9741WAT     H239671   5.391   6.824   7.325  0.2058  0.0975  0.1236
 9741WAT    EPW39672   5.410   6.810   7.400  0.5615  0.4411 -0.2090
 9742WAT      O39673   3.441   5.149   0.668  0.6445  0.4586 -0.3230
 9742WAT     H139674   3.401   5.191   0.603 -0.0173  2.1107  1.0691
 9742WAT     H239675   3.525   5.161   0.651  0.5254 -0.4618 -1.6776
 9742WAT    EPW39676   3.447   5.157   0.656 -0.8690  0.4611 -0.2087
 9743WAT      O39677   0.488   0.980   6.476  0.0348  0.5125  0.6329
 9743WAT     H139678   0.473   0.895   6.490 -0.0309  0.3489 -0.3019
 9743WAT     H239679   0.507   0.983   6.391  0.5584  1.3716  0.7693
 9743WAT    EPW39680   0.488   0.968   6.465 -0.6209 -0.5712  0.4370
 9744WAT      O39681   0.075   7.320   0.276  0.2609 -0.0554  0.3023
 9744WAT     H139682   0.073   7.258   0.215  1.5212  0.0032  0.1661
 9744WAT     H239683   0.087   7.393   0.230 -2.0938  0.4612  0.3815
 9744WAT    EPW39684   0.077   7.322   0.260 -0.4062 -0.1127  0.3469
 9745WAT      O39685   6.154   2.766   6.625  0.1501  0.0124  0.4457
 9745WAT     H139686   6.120   2.712   6.565 -1.4491  2.0798 -0.6551
 9745WAT     H239687   6.106   2.749   6.697 -0.3856 -0.0150  0.0906
 9745WAT    EPW39688   6.142   2.755   6.627 -0.2764 -0.1922 -0.6417
 9746WAT      O39689   0.808   7.541   7.111  0.2851 -0.2159  0.4188
 9746WAT     H139690   0.727   7.568   7.130  0.7343  1.9416 -0.3528
 9746WAT     H239691   0.805   7.527   7.025  0.4615 -1.2997  0.5751
 9746WAT    EPW39692   0.796   7.543   7.101  0.0414  0.5648  0.0460
 9747WAT      O39693   5.773   3.532   2.594  0.5490 -0.0155  1.1167
 9747WAT     H139694   5.720   3.514   2.527  0.1109 -1.2902  1.7761
 9747WAT     H239695   5.851   3.542   2.555  0.0814  0.4972  0.2875
 9747WAT    EPW39696   5.777   3.531   2.578  0.2219  0.6991  0.0200
 9748WAT      O39697   4.946   1.651   5.760  0.0205  0.1942 -0.0616
 9748WAT     H139698   4.921   1.571   5.785  0.7720  0.3483  1.3000
 9748WAT     H239699   4.947   1.646   5.673  0.8274 -1.5456 -0.0060
 9748WAT    EPW39700   4.943   1.639   5.751  0.4492  0.0638 -0.5469
 9749WAT      O39701   0.688   3.237   0.004 -0.0864 -0.1620  0.1011
 9749WAT     H139702   0.754   3.232  -0.052 -0.4788  0.7798 -0.4597
 9749WAT     H239703   0.727   3.255   0.080  0.3754 -0.5561 -0.0401
 9749WAT    EPW39704   0.703   3.239   0.007 -0.8277 -0.0061 -0.0569
 9750WAT      O39705   3.235   6.604   5.546 -0.0006 -0.1044 -0.2826
 9750WAT     H139706   3.280   6.530   5.530 -0.2317 -0.0402 -1.3304
 9750WAT     H239707   3.179   6.581   5.609 -0.4901 -1.0256 -1.0133
 9750WAT    EPW39708   3.233   6.590   5.553 -0.1564  0.1242 -0.0552
 9751WAT      O39709   4.379   5.253   1.091 -0.6294 -0.1406 -0.0728
 9751WAT     H139710   4.375   5.171   1.121  2.2700 -0.5362 -0.5090
 9751WAT     H239711   4.447   5.251   1.036  0.4933  2.8827  1.0451
 9751WAT    EPW39712   4.388   5.240   1.088  0.3488  0.2163  0.3180
 9752WAT      O39713   6.382   2.769   0.887  0.7253 -0.0735  0.0152
 9752WAT     H139714   6.469   2.767   0.890  0.7800 -0.2779 -1.4024
 9752WAT     H239715   6.363   2.854   0.886  1.0197  0.0035 -1.6999
 9752WAT    EPW39716   6.392   2.781   0.888  0.3765  0.1344  0.9768
 9753WAT      O39717   0.694   6.073   6.299 -0.5828  0.4713  0.2594
 9753WAT     H139718   0.634   6.101   6.242  0.1850  0.4391 -0.5823
 9753WAT     H239719   0.724   6.146   6.335 -0.0709  0.6126 -0.4193
 9753WAT    EPW39720   0.690   6.088   6.296  0.0643 -0.3742 -0.7882
 9754WAT      O39721   6.326   2.647   5.824 -0.9134 -0.0068  0.3575
 9754WAT     H139722   6.353   2.569   5.853 -0.5824 -0.1295 -0.2436
 9754WAT     H239723   6.279   2.679   5.890  1.6457  0.7174  1.9577
 9754WAT    EPW39724   6.323   2.640   5.838  0.1771 -0.0603  0.2672
 9755WAT      O39725   2.003   0.266   1.927 -0.0840 -0.1839  0.8132
 9755WAT     H139726   2.065   0.225   1.882 -0.7128  0.1045 -0.3674
 9755WAT     H239727   1.992   0.216   1.998  2.0985  0.2408  1.5093
 9755WAT    EPW39728   2.010   0.252   1.931  0.1350  0.3506  0.1194
 9756WAT      O39729   3.196   6.946   3.944  0.2757  0.7712 -0.0346
 9756WAT     H139730   3.233   6.871   3.918 -0.2651  0.4440  0.1240
 9756WAT     H239731   3.253   6.978   4.001 -0.0692 -0.1517  0.8470
 9756WAT    EPW39732   3.210   6.940   3.948 -0.5447 -0.1163 -0.2773
 9757WAT      O39733   2.993   7.529   4.713  0.4124 -0.1878 -0.4073
 9757WAT     H139734   3.034   7.595   4.672 -0.8892  0.4172 -0.7994
 9757WAT     H239735   2.909   7.546   4.699  0.0011 -1.1293  0.7761
 9757WAT    EPW39736   2.987   7.542   4.705  0.0258 -0.0077 -0.2452
 9758WAT      O39737   0.335   5.679   7.028  0.5253 -0.5335 -0.2597
 9758WAT     H139738   0.375   5.602   7.019 -1.0452 -1.3950 -0.2854
 9758WAT     H239739   0.296   5.674   7.106  1.3387  0.7362  0.2787
 9758WAT    EPW39740   0.335   5.667   7.038 -0.6086  0.6339  0.7493
 9759WAT      O39741   2.598   5.088   0.635 -0.0126  0.0685  0.3280
 9759WAT     H139742   2.654   5.139   0.677 -0.3229  0.2619  0.5124
 9759WAT     H239743   2.638   5.070   0.560 -0.7043  2.1984 -0.6070
 9759WAT    EPW39744   2.612   5.093   0.630  0.3926 -0.9730 -0.1213
 9760WAT      O39745   2.639   2.423   0.209  0.7646  0.6359 -0.0597
 9760WAT     H139746   2.586   2.470   0.260  1.1241 -0.2360  1.1752
 9760WAT     H239747   2.716   2.465   0.215  0.7290  0.7098 -0.1270
 9760WAT    EPW39748   2.643   2.436   0.218 -0.4747  0.3315 -0.1827
 9761WAT      O39749   2.792   4.127   7.504  0.1615 -0.1437 -0.5869
 9761WAT     H139750   2.742   4.100   7.439 -0.4578 -0.0934 -0.1412
 9761WAT     H239751   2.864   4.078   7.497 -0.4270 -1.0293 -0.5413
 9761WAT    EPW39752   2.796   4.116   7.493 -0.0296 -0.5021 -0.1097
 9762WAT      O39753   5.933   7.464   6.595  0.2231  0.0993 -0.2371
 9762WAT     H139754   5.912   7.548   6.591 -0.1819 -0.0030 -0.2420
 9762WAT     H239755   5.952   7.443   6.513  0.5686  0.2488 -0.1957
 9762WAT    EPW39756   5.933   7.473   6.583 -0.1668 -0.2601 -0.4039
 9763WAT      O39757   1.146   3.234   1.608  0.2193 -0.1991  0.5807
 9763WAT     H139758   1.167   3.188   1.679  1.1524  1.8176  1.6595
 9763WAT     H239759   1.093   3.180   1.565  1.4233 -2.3890  1.6480
 9763WAT    EPW39760   1.141   3.219   1.612  0.2729  0.9043  0.0635
 9764WAT      O39761   3.063   0.296   7.391 -0.5474  0.2114 -0.0490
 9764WAT     H139762   3.008   0.241   7.352 -0.1137 -0.1375 -0.1768
 9764WAT     H239763   3.137   0.288   7.344 -0.2111  0.2445  0.4691
 9764WAT    EPW39764   3.066   0.286   7.378 -0.1707  0.7059 -0.0632
 9765WAT      O39765   6.127   7.411   4.437  0.3765 -0.2350 -0.0008
 9765WAT     H139766   6.117   7.496   4.453  2.3586 -0.0395  0.5231
 9765WAT     H239767   6.195   7.409   4.382 -0.5206 -1.4363 -1.1171
 9765WAT    EPW39768   6.135   7.423   4.431  0.3989  0.6140  0.0285
 9766WAT      O39769   2.346   3.282   1.078  0.4838  0.1605 -0.3225
 9766WAT     H139770   2.419   3.242   1.050 -1.3479 -1.9865 -2.5798
 9766WAT     H239771   2.330   3.244   1.155  1.0435 -0.3705 -0.4568
 9766WAT    EPW39772   2.355   3.270   1.085 -0.2328  0.6027  0.6193
 9767WAT      O39773   2.809   3.398   6.551 -0.1041  0.3805 -0.4295
 9767WAT     H139774   2.766   3.333   6.513  0.5981  0.5957 -1.6232
 9767WAT     H239775   2.833   3.363   6.628 -0.9109 -0.2972 -0.4628
 9767WAT    EPW39776   2.806   3.383   6.557 -0.0157 -0.4720  0.0158
 9768WAT      O39777   5.073   6.069   7.491 -0.5635  0.8584 -0.0575
 9768WAT     H139778   5.011   6.009   7.480 -1.5458  2.1474 -2.0625
 9768WAT     H239779   5.127   6.032   7.549 -0.3276 -2.6066 -2.1822
 9768WAT    EPW39780   5.072   6.055   7.498  0.1308  0.0037 -0.1918
 9769WAT      O39781   1.721   2.293   3.325 -0.7040 -0.1148 -0.3181
 9769WAT     H139782   1.784   2.263   3.378  0.6144 -0.1493 -1.8475
 9769WAT     H239783   1.706   2.374   3.356  0.9500  0.3507 -0.6261
 9769WAT    EPW39784   1.728   2.301   3.338  0.4443  0.6282  0.7224
 9770WAT      O39785   6.688   0.364   4.451 -0.7836 -0.1667 -0.7019
 9770WAT     H139786   6.725   0.291   4.420  0.5695  0.4148 -0.5352
 9770WAT     H239787   6.692   0.420   4.384  1.0921  0.7255  0.0827
 9770WAT    EPW39788   6.694   0.361   4.437 -0.7967 -0.7558 -0.6937
 9771WAT      O39789   2.547   7.263   5.958 -0.9381  0.1048 -0.0480
 9771WAT     H139790   2.485   7.202   5.951 -0.5972 -0.3610  0.8664
 9771WAT     H239791   2.621   7.219   5.941 -0.6403  0.1412  1.0892
 9771WAT    EPW39792   2.549   7.248   5.954  0.0890  0.2256  0.3762
 9772WAT      O39793   2.076   6.418   0.351 -0.5136  0.0849 -0.1032
 9772WAT     H139794   2.083   6.457   0.428  0.7450 -0.6579  0.1806
 9772WAT     H239795   2.131   6.461   0.300 -0.7538  0.0683 -0.3829
 9772WAT    EPW39796   2.085   6.430   0.355  0.6709 -0.1403  0.2778
 9773WAT      O39797   1.776   2.107   6.575  0.4741  0.4927 -0.4239
 9773WAT     H139798   1.728   2.066   6.514  2.2502  1.8810 -2.9130
 9773WAT     H239799   1.745   2.189   6.574 -0.4706  0.2317  1.7246
 9773WAT    EPW39800   1.764   2.113   6.566 -0.5230 -0.4494  0.5476
 9774WAT      O39801   3.356   5.654   3.261 -0.1670 -0.8874  0.5109
 9774WAT     H139802   3.396   5.597   3.314  0.2696 -0.4570  0.6530
 9774WAT     H239803   3.294   5.607   3.223 -0.1276 -1.3360  0.9998
 9774WAT    EPW39804   3.353   5.639   3.263  0.1438  0.1682 -0.4251
 9775WAT      O39805   5.004   5.309   0.614  0.1385  0.2428  0.1116
 9775WAT     H139806   4.932   5.267   0.586 -0.1926  0.2031  0.9897
 9775WAT     H239807   5.003   5.384   0.569 -0.3922  0.1940  0.0312
 9775WAT    EPW39808   4.993   5.314   0.603  0.1043  0.1085  0.1391
 9776WAT      O39809   7.428   3.431   4.946 -0.3913 -0.1280  0.2883
 9776WAT     H139810   7.344   3.437   4.925 -0.4965 -0.9274  0.4162
 9776WAT     H239811   7.457   3.364   4.897  0.5870  1.1448 -0.9698
 9776WAT    EPW39812   7.420   3.422   4.936  0.0818 -0.2792  0.0617
 9777WAT      O39813   4.490   1.551   1.908  0.0754 -0.4727  0.2607
 9777WAT     H139814   4.415   1.564   1.864  1.7292  0.7839 -2.5007
 9777WAT     H239815   4.514   1.632   1.931  1.3222 -0.6523 -0.3412
 9777WAT    EPW39816   4.482   1.565   1.905 -0.0114  0.4522 -0.5192
 9778WAT      O39817   4.162   2.262   0.872  0.0893  0.5126  0.4301
 9778WAT     H139818   4.179   2.268   0.787 -0.1902  0.7346  0.3858
 9778WAT     H239819   4.240   2.265   0.909  0.1373  4.8226  0.4507
 9778WAT    EPW39820   4.176   2.263   0.865 -0.2221  0.0137 -0.4411
 9779WAT      O39821   3.660   4.586   0.335 -0.1897  0.5076  0.2428
 9779WAT     H139822   3.591   4.630   0.305  0.0588  0.7710  0.0546
 9779WAT     H239823   3.627   4.539   0.401 -0.5450  0.6439  0.1636
 9779WAT    EPW39824   3.645   4.586   0.340 -0.1747 -0.2667 -0.0791
 9780WAT      O39825   2.616   5.987   3.227 -0.4058 -0.6518  0.2287
 9780WAT     H139826   2.541   6.012   3.265  0.2116 -0.7425  1.5951
 9780WAT     H239827   2.677   6.025   3.276  0.4646  0.5269 -1.6611
 9780WAT    EPW39828   2.614   5.996   3.240 -1.3347 -0.3295 -0.4667
 9781WAT      O39829   7.108   4.674   3.582 -0.1995 -0.4200  0.3100
 9781WAT     H139830   7.076   4.619   3.522 -0.5740  0.0797  0.0399
 9781WAT     H239831   7.180   4.634   3.611 -1.0013 -1.5298  0.8432
 9781WAT    EPW39832   7.114   4.660   3.577  0.0737 -0.5137 -0.4339
 9782WAT      O39833   0.008   2.954   1.080  0.3439  0.0269  0.0578
 9782WAT     H139834  -0.058   2.908   1.114  0.3343  0.5237  0.7366
 9782WAT     H239835   0.068   2.953   1.144  0.5562  0.4940 -0.1347
 9782WAT    EPW39836   0.007   2.947   1.095 -0.3499 -0.0532 -0.5146
 9783WAT      O39837   3.501   4.762   2.977  0.6395  0.0261 -0.0558
 9783WAT     H139838   3.517   4.804   3.051 -0.4046  0.7625 -0.2225
 9783WAT     H239839   3.500   4.678   3.000 -1.0553  0.3148  1.0671
 9783WAT    EPW39840   3.503   4.756   2.991 -0.0329 -0.0290 -0.0477
 9784WAT      O39841   5.861   4.660   0.160  0.3345 -0.7674  0.0377
 9784WAT     H139842   5.867   4.644   0.246  1.1784  1.4835  0.4626
 9784WAT     H239843   5.838   4.744   0.156 -0.4489 -1.0232 -1.9642
 9784WAT    EPW39844   5.858   4.670   0.173  0.4032  0.6197 -0.1301
 9785WAT      O39845   3.149   4.612   7.152 -1.0717  0.0531  0.2740
 9785WAT     H139846   3.166   4.532   7.123 -0.2971  0.2997  0.0164
 9785WAT     H239847   3.061   4.617   7.150 -1.0835 -0.0298 -1.8589
 9785WAT    EPW39848   3.138   4.601   7.147 -0.1856 -0.1907  0.2659
 9786WAT      O39849   0.021   4.984   0.315 -0.5457  0.0805  0.1133
 9786WAT     H139850  -0.050   5.011   0.274 -0.7637 -0.5111  0.0928
 9786WAT     H239851   0.026   5.037   0.384 -1.1492 -0.0403  0.2538
 9786WAT    EPW39852   0.011   4.996   0.319  0.1264  0.4209 -0.4006
 9787WAT      O39853   1.518   5.226   2.768 -0.1915  0.2107 -0.2727
 9787WAT     H139854   1.582   5.251   2.715  0.7796 -1.9283 -0.2365
 9787WAT     H239855   1.536   5.266   2.843  0.3900  0.5878 -0.6111
 9787WAT    EPW39856   1.530   5.236   2.771  0.1265 -0.1497 -0.8647
 9788WAT      O39857   1.141   6.412   5.735  0.3695 -0.2184  0.3262
 9788WAT     H139858   1.128   6.483   5.785 -0.1878  0.1434 -0.3113
 9788WAT     H239859   1.083   6.422   5.671  0.5622 -1.0596  0.0150
 9788WAT    EPW39860   1.131   6.424   5.733  0.8429 -0.5758  0.6285
 9789WAT      O39861   2.626   0.242   0.209  0.0082 -0.1272 -0.2163
 9789WAT     H139862   2.695   0.292   0.190  1.4636 -1.9994 -0.1525
 9789WAT     H239863   2.627   0.238   0.296 -0.3251  0.0161 -0.2037
 9789WAT    EPW39864   2.637   0.249   0.219  0.1095 -0.4600  0.3139
 9790WAT      O39865   0.693  -0.021   5.192 -0.3622  0.0569 -0.0380
 9790WAT     H139866   0.617   0.019   5.178  0.1052  0.5603 -1.3521
 9790WAT     H239867   0.752   0.038   5.167  0.3944 -0.9076 -0.6175
 9790WAT    EPW39868   0.691  -0.006   5.186 -0.2232  0.3948  0.0051
 9791WAT      O39869   1.570   4.044   4.577  0.1999 -0.8380  0.3575
 9791WAT     H139870   1.639   4.008   4.538  0.3378  0.5011 -0.7165
 9791WAT     H239871   1.531   3.976   4.617 -0.1602 -2.4244 -2.4106
 9791WAT    EPW39872   1.575   4.028   4.577 -0.1951  0.1695  0.0639
 9792WAT      O39873   2.138   6.487   2.883  0.5903  0.2602 -0.5322
 9792WAT     H139874   2.079   6.540   2.920  0.2372 -1.2010  1.0933
 9792WAT     H239875   2.123   6.497   2.798 -1.2136  0.8345 -0.1902
 9792WAT    EPW39876   2.127   6.496   2.876 -0.5069 -0.5071 -0.2488
 9793WAT      O39877   7.404   0.919   2.248  0.3125 -0.9876  0.4374
 9793WAT     H139878   7.425   0.861   2.310  1.7269 -0.8182  0.1551
 9793WAT     H239879   7.440   0.887   2.176  1.3747  0.3409  0.3246
 9793WAT    EPW39880   7.413   0.906   2.247  0.7580  0.9970  0.2324
 9794WAT      O39881   5.568   2.391   6.637 -0.4739 -0.0242 -0.0855
 9794WAT     H139882   5.600   2.456   6.686 -0.4664 -0.8217  1.0138
 9794WAT     H239883   5.503   2.359   6.686 -1.9690  0.5395 -1.5743
 9794WAT    EPW39884   5.563   2.396   6.652  0.1207  0.5723  0.3011
 9795WAT      O39885   3.616   2.624   7.111 -0.3156  0.0134 -0.1979
 9795WAT     H139886   3.691   2.593   7.144 -0.4147 -2.1224 -1.8008
 9795WAT     H239887   3.637   2.649   7.031 -0.5014  3.3738  0.6426
 9795WAT    EPW39888   3.630   2.623   7.104  0.6200 -0.0678 -0.2855
 9796WAT      O39889   5.184   5.265   5.038  0.1926  0.3605  0.1419
 9796WAT     H139890   5.228   5.340   5.035 -0.7159  0.8822 -0.8444
 9796WAT     H239891   5.246   5.204   5.036  0.8982  1.0731 -1.0656
 9796WAT    EPW39892   5.199   5.267   5.037  0.2549  0.5000 -1.0679
 9797WAT      O39893   5.104   7.379   2.655  0.3093  0.1142  0.0850
 9797WAT     H139894   5.115   7.448   2.603  1.3454  0.2454  0.4619
 9797WAT     H239895   5.113   7.413   2.735  0.5916 -0.4110  0.2799
 9797WAT    EPW39896   5.107   7.394   2.659  0.4810 -0.2436 -0.2173
 9798WAT      O39897   1.607   3.773   6.558 -0.4722  0.4158  0.1072
 9798WAT     H139898   1.690   3.792   6.537 -0.5483 -0.2797 -0.8860
 9798WAT     H239899   1.564   3.783   6.482 -1.4662  1.5895  0.7742
 9798WAT    EPW39900   1.613   3.777   6.544 -0.3927 -0.5199 -0.3598
 9799WAT      O39901   4.894   6.254   0.278  0.4587 -0.0947 -0.7073
 9799WAT     H139902   4.880   6.199   0.343  0.7049  0.0461 -0.5315
 9799WAT     H239903   4.842   6.225   0.214  1.5101 -1.2973 -1.0634
 9799WAT    EPW39904   4.884   6.242   0.278 -0.4578 -0.1568  0.2008
 9800WAT      O39905   0.211   2.625   1.887 -0.4086  0.7848  1.0148
 9800WAT     H139906   0.152   2.576   1.845  0.9193 -0.2561  0.2705
 9800WAT     H239907   0.205   2.598   1.970 -1.2915  1.0188  1.0307
 9800WAT    EPW39908   0.201   2.613   1.893 -0.3452 -0.5476 -0.7753
 9801WAT      O39909   3.037   5.537   5.517 -0.3269  0.6497  0.0159
 9801WAT     H139910   3.048   5.549   5.431 -1.3860  1.4222 -0.0369
 9801WAT     H239911   2.977   5.474   5.522  0.5014 -0.1444  0.2208
 9801WAT    EPW39912   3.030   5.530   5.505  0.0012  0.0597  0.0027
 9802WAT      O39913   1.360   7.035   2.123 -0.6486 -0.2095 -0.1467
 9802WAT     H139914   1.407   6.962   2.126 -1.1449 -0.6535 -2.0388
 9802WAT     H239915   1.403   7.085   2.066 -1.6734 -0.0542 -0.8072
 9802WAT    EPW39916   1.373   7.032   2.115 -0.7414  0.2315 -0.5621
 9803WAT      O39917   3.168   6.243   0.721 -0.1048  0.1135 -0.2731
 9803WAT     H139918   3.200   6.215   0.797  0.5670 -1.3173 -1.0368
 9803WAT     H239919   3.082   6.235   0.730 -0.1664  1.8641  1.0169
 9803WAT    EPW39920   3.160   6.238   0.733  0.5457  0.2474  0.3880
 9804WAT      O39921   1.502   3.918   7.317  0.3691 -0.0282  0.3167
 9804WAT     H139922   1.578   3.877   7.310  0.9705  0.7274  1.9578
 9804WAT     H239923   1.507   3.959   7.394 -1.4900  0.4613  0.2382
 9804WAT    EPW39924   1.514   3.918   7.328 -0.0021  0.2531  0.0124
 9805WAT      O39925   5.699   4.342   6.977 -0.2502  0.4277  0.5728
 9805WAT     H139926   5.755   4.302   7.029 -0.5118  1.6163  1.8163
 9805WAT     H239927   5.723   4.426   6.982 -0.4873  0.6221 -0.9779
 9805WAT    EPW39928   5.711   4.349   6.985  0.6605 -0.1545 -0.6244
 9806WAT      O39929   3.549   6.663   1.374  0.0659  0.5180  0.5824
 9806WAT     H139930   3.586   6.624   1.443  1.4801 -0.4564 -0.6440
 9806WAT     H239931   3.464   6.664   1.393  0.5182  1.4261  2.8575
 9806WAT    EPW39932   3.542   6.657   1.387  0.5866  0.3721  0.1608
 9807WAT      O39933   4.854   6.113   5.195 -0.2498 -0.4062  0.0051
 9807WAT     H139934   4.897   6.164   5.251  0.5547 -0.9706 -0.0849
 9807WAT     H239935   4.905   6.043   5.187 -0.6534 -0.6129 -0.9539
 9807WAT    EPW39936   4.868   6.110   5.202 -0.3491 -0.2720  0.0188
 9808WAT      O39937   0.177   6.759   6.238  0.0296  0.5177  0.0497
 9808WAT     H139938   0.117   6.742   6.299  0.0016  1.2088  0.2258
 9808WAT     H239939   0.154   6.838   6.209 -0.3866 -0.1067 -1.3757
 9808WAT    EPW39940   0.165   6.768   6.243 -0.4640  0.1806 -0.0889
 9809WAT      O39941   0.142   7.081   0.682 -0.0463 -0.1623 -0.4263
 9809WAT     H139942   0.148   7.062   0.597 -0.5652 -0.4269 -0.4089
 9809WAT     H239943   0.218   7.052   0.715 -0.0603 -0.5355 -0.7130
 9809WAT    EPW39944   0.154   7.074   0.674  0.2725 -0.2925 -0.2622
 9810WAT      O39945   2.196   7.558   4.117  0.2943  0.3480 -0.4934
 9810WAT     H139946   2.131   7.559   4.175 -0.0832  1.5675 -0.9074
 9810WAT     H239947   2.268   7.554   4.167 -0.0001 -4.4084 -0.0381
 9810WAT    EPW39948   2.197   7.558   4.133  0.1795 -0.1434  0.2037
 9811WAT      O39949   1.333   7.128   2.774  0.5456 -0.4508 -0.0546
 9811WAT     H139950   1.334   7.214   2.764 -0.2411 -0.4348 -0.0188
 9811WAT     H239951   1.349   7.098   2.693 -0.0404 -0.2721 -0.2436
 9811WAT    EPW39952   1.336   7.136   2.761 -0.5965 -0.3733  0.1077
 9812WAT      O39953   6.368   7.431   7.239  0.4326  0.5673  0.2449
 9812WAT     H139954   6.338   7.468   7.166  0.6298  0.7387  0.2491
 9812WAT     H239955   6.450   7.462   7.246  0.2964  0.8411  0.7285
 9812WAT    EPW39956   6.376   7.441   7.229  0.3850  0.3168  0.0973
 9813WAT      O39957   5.127   6.005   0.582  0.1159 -0.1613  0.2323
 9813WAT     H139958   5.194   6.060   0.589  0.2629 -0.5485  3.1791
 9813WAT     H239959   5.072   6.046   0.529  1.9345  0.9258 -0.9226
 9813WAT    EPW39960   5.129   6.019   0.575 -0.2525  0.2797 -0.8338
 9814WAT      O39961   1.596   2.477   7.430  0.0716 -0.6695 -0.6498
 9814WAT     H139962   1.593   2.428   7.502  1.1616  0.9119  0.5671
 9814WAT     H239963   1.514   2.480   7.403 -0.7159  0.0759  1.5788
 9814WAT    EPW39964   1.584   2.470   7.437 -0.0031  0.6223  0.1171
 9815WAT      O39965   2.285   5.874   1.762  0.3936 -0.4763 -0.3229
 9815WAT     H139966   2.276   5.933   1.699  0.4384  0.2053  0.2983
 9815WAT     H239967   2.318   5.919   1.829 -1.0817 -0.8173  0.7063
 9815WAT    EPW39968   2.288   5.889   1.763 -0.3746  0.0635  0.2318
 9816WAT      O39969   3.224   3.354   0.971 -0.0497 -0.0690 -0.1638
 9816WAT     H139970   3.257   3.384   1.046 -0.9330 -0.3768  0.3677
 9816WAT     H239971   3.139   3.344   0.989 -0.1542 -0.7944 -1.0006
 9816WAT    EPW39972   3.216   3.357   0.985 -0.0430 -0.6671 -0.1841
 9817WAT      O39973   3.425   2.118   0.304  0.0340 -0.5857  0.1717
 9817WAT     H139974   3.482   2.098   0.242 -1.1963  0.0311 -1.2156
 9817WAT     H239975   3.361   2.159   0.261 -0.3283  0.9039  2.0168
 9817WAT    EPW39976   3.424   2.121   0.289  0.3523 -0.4684  0.1290
 9818WAT      O39977   0.962   4.038   1.680 -0.4585 -0.5640  0.2397
 9818WAT     H139978   0.926   4.085   1.744  2.2944  0.2604  1.3206
 9818WAT     H239979   0.981   4.097   1.619 -0.1811 -0.8489  0.0507
 9818WAT    EPW39980   0.959   4.053   1.681 -0.7225 -0.8030 -0.3675
 9819WAT      O39981   3.671   1.235   3.032 -0.2333  0.5052  0.6546
 9819WAT     H139982   3.693   1.206   3.111 -1.8063  0.1174  0.9944
 9819WAT     H239983   3.664   1.321   3.043  1.2423  0.6740  0.4723
 9819WAT    EPW39984   3.673   1.244   3.045  0.1082 -0.2626  0.4739
 9820WAT      O39985   5.952   6.325   5.585 -0.3250 -0.1340 -0.2541
 9820WAT     H139986   5.908   6.305   5.513  1.1874  1.4983 -1.7455
 9820WAT     H239987   6.031   6.289   5.572  0.2452  0.9090  0.1127
 9820WAT    EPW39988   5.957   6.317   5.572 -0.1008 -0.0860  0.1794
 9821WAT      O39989   6.212   6.654   3.318  0.1032 -0.4380  0.1754
 9821WAT     H139990   6.172   6.577   3.320 -0.0640 -0.3628 -0.2347
 9821WAT     H239991   6.195   6.684   3.238  3.0656 -1.5186 -1.0246
 9821WAT    EPW39992   6.204   6.647   3.307  0.3093 -0.1814 -0.2069
 9822WAT      O39993   5.953   5.699   4.407 -0.1736  0.3883  0.2194
 9822WAT     H139994   5.881   5.750   4.402 -0.3549  0.0359 -1.1193
 9822WAT     H239995   6.011   5.741   4.357  0.6665  0.7999  1.4955
 9822WAT    EPW39996   5.951   5.713   4.399 -0.0765  0.4023 -0.2628
 9823WAT      O39997   4.647   2.031   4.193 -0.1213 -0.4060 -0.0561
 9823WAT     H139998   4.725   2.001   4.169 -0.9677 -0.7917 -2.7161
 9823WAT     H239999   4.646   2.113   4.162 -0.0613  0.3558  1.8129
 9823WAT    EPW40000   4.658   2.039   4.185  0.6431  0.6724  0.0951
 9824WAT      O40001   0.302   5.372   5.900 -0.0343 -0.1144  0.6062
 9824WAT     H140002   0.294   5.459   5.907  0.1035 -0.0205 -0.3081
 9824WAT     H240003   0.222   5.346   5.878  0.5076  0.1309 -2.0567
 9824WAT    EPW40004   0.289   5.381   5.898 -0.0144 -0.1822 -0.0297
 9825WAT      O40005   1.992   5.668   2.534 -0.3202  0.0694 -0.3593
 9825WAT     H140006   1.928   5.625   2.494 -0.6202  1.1049 -1.0260
 9825WAT     H240007   2.009   5.619   2.604 -0.9225 -0.9091 -0.8844
 9825WAT    EPW40008   1.985   5.655   2.538 -0.3474 -0.0222  0.0856
 9826WAT      O40009   3.086   7.144   2.476  0.1053  0.4261  0.1115
 9826WAT     H140010   3.039   7.214   2.453 -1.3724 -0.7426 -0.6848
 9826WAT     H240011   3.028   7.095   2.519  1.8681  0.9297  3.3040
 9826WAT    EPW40012   3.070   7.147   2.479  0.7737 -0.1732  0.3468
 9827WAT      O40013   5.459   7.091   6.751 -0.0078  0.2679 -0.0521
 9827WAT     H140014   5.450   7.177   6.739 -0.0544  0.2823  0.0844
 9827WAT     H240015   5.477   7.084   6.836 -1.2147  0.0491  0.2068
 9827WAT    EPW40016   5.460   7.103   6.761 -0.4091 -0.3342  0.1991
 9828WAT      O40017   7.243   0.671   5.083  0.3798 -0.9498 -0.6704
 9828WAT     H140018   7.171   0.711   5.114 -0.1114 -0.9368 -1.7880
 9828WAT     H240019   7.231   0.588   5.105  1.4559 -0.5604  1.7705
 9828WAT    EPW40020   7.230   0.665   5.091  0.2824 -0.6991  0.8611
 9829WAT      O40021   5.697   1.411   4.947 -0.2184  0.4525 -0.0397
 9829WAT     H140022   5.625   1.444   4.910  0.1468  1.1737 -0.1312
 9829WAT     H240023   5.719   1.345   4.894 -0.5304  0.5366 -0.2821
 9829WAT    EPW40024   5.689   1.406   4.934 -0.2800 -0.3156 -0.1055
 9830WAT      O40025   4.946   1.309   5.159 -0.0158  0.4874 -0.2214
 9830WAT     H140026   4.940   1.395   5.173 -0.4338  0.5428 -0.7357
 9830WAT     H240027   5.031   1.293   5.168  0.2774  1.1999 -1.5078
 9830WAT    EPW40028   4.958   1.319   5.163 -0.4407 -0.4350 -0.3551
 9831WAT      O40029   6.638   6.079   1.632  0.5168  0.3876  0.1681
 9831WAT     H140030   6.693   6.101   1.696 -1.1575  3.6845  0.7134
 9831WAT     H240031   6.609   6.000   1.656  2.7311 -0.1422  1.3787
 9831WAT    EPW40032   6.642   6.071   1.645 -0.3977 -0.1034 -0.0037
 9832WAT      O40033   1.507   5.545   6.221 -0.0325 -0.5774  0.2811
 9832WAT     H140034   1.477   5.614   6.265  3.2395  0.9308  0.4488
 9832WAT     H240035   1.477   5.558   6.140  0.1955  0.8512  0.4070
 9832WAT    EPW40036   1.498   5.557   6.215  0.2161 -0.6725 -0.0031
 9833WAT      O40037   2.995   3.057   3.319 -0.1674  0.1641  0.0324
 9833WAT     H140038   3.079   3.078   3.328  0.0383 -0.8630  0.7945
 9833WAT     H240039   2.986   3.043   3.233  0.6633 -0.5068  0.0330
 9833WAT    EPW40040   3.006   3.058   3.308 -0.1827 -0.6723  0.2636
 9834WAT      O40041   0.545   6.986   7.077  0.1926 -0.0056 -0.0441
 9834WAT     H140042   0.521   6.904   7.057  0.4282 -0.5544  1.6988
 9834WAT     H240043   0.624   6.994   7.042 -0.6709  0.2478 -2.0353
 9834WAT    EPW40044   0.553   6.975   7.069  0.7443  0.5548 -0.0293
 9835WAT      O40045   5.877   5.770   6.640  0.7051 -0.2393 -0.0462
 9835WAT     H140046   5.922   5.713   6.687  2.2926  1.0271  0.0643
 9835WAT     H240047   5.814   5.797   6.694  0.6938 -0.9689  0.3122
 9835WAT    EPW40048   5.874   5.765   6.655 -0.3118 -0.1914 -0.1700
 9836WAT      O40049   7.212   3.232   5.317  0.1782 -0.1450 -1.1321
 9836WAT     H140050   7.185   3.287   5.255  0.5261  1.3998  0.0419
 9836WAT     H240051   7.298   3.224   5.302  0.1308 -0.3751 -1.2914
 9836WAT    EPW40052   7.221   3.239   5.305  0.4611  0.5555  0.0764
 9837WAT      O40053   0.457   1.019   1.631  0.3032  0.5744  0.2118
 9837WAT     H140054   0.543   1.013   1.647 -0.1635 -1.0006  2.7659
 9837WAT     H240055   0.432   1.088   1.678 -0.0453  0.0740  0.7767
 9837WAT    EPW40056   0.466   1.028   1.640  0.1384  0.0812  0.0198
 9838WAT      O40057   1.642   2.348   1.357  0.5460 -0.5274 -0.4368
 9838WAT     H140058   1.703   2.404   1.385  0.3631  0.3989 -1.7901
 9838WAT     H240059   1.620   2.304   1.429  0.2874  1.5203  0.8235
 9838WAT    EPW40060   1.648   2.350   1.371  0.0460 -0.3144 -0.5607
 9839WAT      O40061   4.436   2.003   3.171  0.8081  0.4943  0.1747
 9839WAT     H140062   4.395   1.985   3.096  0.3750 -0.4334  0.6137
 9839WAT     H240063   4.519   2.017   3.146  0.5137  0.9747 -0.5576
 9839WAT    EPW40064   4.443   2.002   3.157  0.0187 -0.0066  0.3419
 9840WAT      O40065   2.731   0.160   5.214  0.3675 -1.0127  0.4936
 9840WAT     H140066   2.737   0.080   5.248  0.4592 -1.0184  0.4624
 9840WAT     H240067   2.800   0.166   5.162  0.3569 -0.9150  0.4904
 9840WAT    EPW40068   2.742   0.149   5.212 -0.4433  0.2757  0.2976
 9841WAT      O40069   0.500   5.056   0.518 -0.0921  0.3420 -0.7058
 9841WAT     H140070   0.528   5.031   0.597 -0.5025 -3.0094 -1.4684
 9841WAT     H240071   0.425   5.097   0.535 -0.4055 -0.7205  0.6316
 9841WAT    EPW40072   0.493   5.059   0.532 -0.2891 -0.1284  0.9111
 9842WAT      O40073   7.301   2.693   2.441  0.2173  0.2594 -0.4944
 9842WAT     H140074   7.378   2.683   2.401 -0.8344 -2.6804 -2.1798
 9842WAT     H240075   7.320   2.736   2.514  3.2222  0.7217 -1.4354
 9842WAT    EPW40076   7.315   2.698   2.446  0.5773  0.4279  0.1643
 9843WAT      O40077   5.023   6.334   1.680  0.8592  0.2665  0.1910
 9843WAT     H140078   5.033   6.421   1.686 -1.0294  0.4428  1.6774
 9843WAT     H240079   5.104   6.304   1.687  1.4467  1.8770  0.8507
 9843WAT    EPW40080   5.036   6.342   1.682 -0.2828  0.2288  0.2334
 9844WAT      O40081   5.098   5.788   5.904  0.3256  0.3642  0.2433
 9844WAT     H140082   5.173   5.770   5.944  0.6119  1.8315  0.4474
 9844WAT     H240083   5.102   5.742   5.830  0.3379 -1.4349  1.3223
 9844WAT    EPW40084   5.110   5.779   5.899  0.4880  0.3380  0.2891
 9845WAT      O40085   2.912   5.145   3.781  0.0010  1.0091  0.1898
 9845WAT     H140086   2.934   5.226   3.757  0.1253  0.7915 -0.4178
 9845WAT     H240087   2.827   5.153   3.801 -0.2849  1.0332 -1.0030
 9845WAT    EPW40088   2.903   5.158   3.781  0.3757 -0.1928  0.3819
 9846WAT      O40089   5.189   4.940   0.621  0.2185  0.1640  0.5053
 9846WAT     H140090   5.173   4.873   0.567 -1.1971  1.0935 -0.2661
 9846WAT     H240091   5.178   5.010   0.571  0.8680  1.0087  1.5123
 9846WAT    EPW40092   5.185   4.940   0.606  0.3338  0.1689 -0.3204
 9847WAT      O40093   6.763   6.531   7.178  0.2038  0.1416  0.6450
 9847WAT     H140094   6.821   6.487   7.226 -0.0599  0.6233  1.4245
 9847WAT     H240095   6.785   6.614   7.192  1.7718  0.3336 -2.1084
 9847WAT    EPW40096   6.775   6.537   7.187 -0.0954  0.8653  0.4391
 9848WAT      O40097   2.908   2.856   3.648  0.4055  0.1855  0.1458
 9848WAT     H140098   2.990   2.885   3.654  0.2859  0.5078  0.2095
 9848WAT     H240099   2.909   2.783   3.695  1.3105 -1.2404 -1.9080
 9848WAT    EPW40100   2.920   2.850   3.656  0.0923 -0.1183  0.3251
 9849WAT      O40101   5.080   1.215   0.557 -0.3294  0.0647  0.0357
 9849WAT     H140102   5.064   1.287   0.511  0.0410  1.0134  1.3247
 9849WAT     H240103   5.114   1.245   0.632  0.7067 -1.4963  0.2534
 9849WAT    EPW40104   5.082   1.230   0.561 -0.4046 -0.2101  0.0298
 9850WAT      O40105   6.216   1.473   0.198 -0.3184  0.1181  0.3054
 9850WAT     H140106   6.186   1.433   0.269  1.0447 -0.5955  0.5252
 9850WAT     H240107   6.175   1.433   0.133 -0.4837 -0.2347  0.6219
 9850WAT    EPW40108   6.206   1.461   0.199  0.7941 -0.1165  0.2903
 9851WAT      O40109   0.773   5.092   6.530 -0.2610 -0.4906  0.3916
 9851WAT     H140110   0.833   5.150   6.506 -1.0130 -0.6767 -2.1886
 9851WAT     H240111   0.813   5.015   6.518  0.0369 -0.6027  1.8544
 9851WAT    EPW40112   0.788   5.089   6.525 -0.3037 -0.4227  0.2418
 9852WAT      O40113   5.079   1.290   3.255 -0.3786 -0.0684  0.2657
 9852WAT     H140114   5.005   1.336   3.252 -0.4214 -0.0803  0.9848
 9852WAT     H240115   5.074   1.238   3.185 -0.3305  1.0045 -0.5608
 9852WAT    EPW40116   5.067   1.289   3.244 -0.0181 -0.5642  0.0144
 9853WAT      O40117   7.289   5.385   5.141 -0.1664  0.3676  0.1103
 9853WAT     H140118   7.279   5.422   5.220 -1.5979  2.5759 -1.0103
 9853WAT     H240119   7.207   5.367   5.117  0.2024  0.3437 -1.1568
 9853WAT    EPW40120   7.276   5.388   5.149 -0.3068  0.0168 -0.6806
 9854WAT      O40121   2.015   4.451   0.470  0.0851  0.0918  0.3519
 9854WAT     H140122   2.082   4.452   0.526  0.5212 -1.3711 -0.0828
 9854WAT     H240123   2.052   4.423   0.395 -0.7400  0.6894 -0.2930
 9854WAT    EPW40124   2.030   4.447   0.467  0.1279 -0.6027  0.2983
 9855WAT      O40125   2.052   6.741   5.867  0.0330 -0.5171  0.2152
 9855WAT     H140126   2.035   6.667   5.909  0.8181 -0.2128  1.1121
 9855WAT     H240127   2.035   6.803   5.926 -2.1408  0.1467 -0.9992
 9855WAT    EPW40128   2.047   6.739   5.882 -0.2492 -0.0728  0.0115
 9856WAT      O40129   7.543   2.054   4.833 -0.1933  0.1244  0.7198
 9856WAT     H140130   7.506   1.976   4.821  0.4014  0.1157 -1.5790
 9856WAT     H240131   7.532   2.070   4.918 -4.4557 -0.3404  0.4575
 9856WAT    EPW40132   7.536   2.045   4.843 -0.1387 -0.5598 -0.0060
 9857WAT      O40133   6.618   1.017   5.889  0.1105 -0.2554  0.2361
 9857WAT     H140134   6.669   1.078   5.853  3.1366 -2.2714  0.6535
 9857WAT     H240135   6.590   0.971   5.820  0.6892 -0.4037  0.0951
 9857WAT    EPW40136   6.622   1.019   5.873 -0.1947 -0.1735  0.0095
 9858WAT      O40137   5.999   2.947   7.464 -0.6340 -0.2987  0.1744
 9858WAT     H140138   6.007   2.865   7.492 -0.7165 -0.2864  0.2359
 9858WAT     H240139   6.079   2.980   7.476 -0.3546 -0.6392 -0.7413
 9858WAT    EPW40140   6.012   2.940   7.470  0.5069  0.0383  0.1572
 9859WAT      O40141   3.261   6.742   7.173 -0.1081  0.2751 -0.0038
 9859WAT     H140142   3.304   6.764   7.245 -1.4127  0.3599  0.7695
 9859WAT     H240143   3.253   6.655   7.178 -0.3676  0.3016  0.0511
 9859WAT    EPW40144   3.266   6.733   7.184 -0.1354  0.1248 -0.0805
 9860WAT      O40145   3.726   6.549   3.395 -0.0505  0.0787 -0.1194
 9860WAT     H140146   3.660   6.579   3.443  0.2895 -0.5274  0.7541
 9860WAT     H240147   3.688   6.525   3.320 -0.8708 -0.5215  0.4770
 9860WAT    EPW40148   3.711   6.550   3.391 -0.2403  0.2561  0.6241
 9861WAT      O40149   7.269   4.834   6.983  0.0753  0.1263 -0.2423
 9861WAT     H140150   7.186   4.845   6.959  0.1664 -0.0624 -0.6667
 9861WAT     H240151   7.275   4.748   6.997 -0.0503  0.2720  0.7734
 9861WAT    EPW40152   7.258   4.823   6.981  0.4196  0.2051  0.6845
 9862WAT      O40153   7.189   1.831   4.852  0.6129  0.1456  0.3374
 9862WAT     H140154   7.273   1.812   4.864  0.3951 -0.4870  0.9667
 9862WAT     H240155   7.187   1.872   4.775  1.6358  1.1448  0.8238
 9862WAT    EPW40156   7.201   1.834   4.842 -0.1723 -0.1352  0.1465
 9863WAT      O40157   0.007   4.721   0.465 -0.2935  0.2346 -0.1111
 9863WAT     H140158   0.033   4.726   0.548 -1.1843  0.6231  0.1579
 9863WAT     H240159  -0.009   4.804   0.444 -1.5237  0.0008 -0.1760
 9863WAT    EPW40160   0.008   4.734   0.474  0.6737 -0.3919  0.4950
 9864WAT      O40161   3.315   0.238   4.815 -0.8084  0.0752 -0.1174
 9864WAT     H140162   3.300   0.310   4.861  0.2713  0.3629 -0.1924
 9864WAT     H240163   3.356   0.267   4.743  2.7662 -0.8342  1.3331
 9864WAT    EPW40164   3.319   0.253   4.811 -0.1995 -1.0160 -0.2309
 9865WAT      O40165   5.433   2.837   1.480 -0.3865  0.8896 -0.0288
 9865WAT     H140166   5.363   2.836   1.428 -0.2599  1.9022 -0.2270
 9865WAT     H240167   5.454   2.921   1.486  1.0273  0.5766 -0.2461
 9865WAT    EPW40168   5.426   2.849   1.473 -0.4058 -0.2723  0.1575
 9866WAT      O40169   4.843   1.598   7.370 -0.8773  0.2657  0.4421
 9866WAT     H140170   4.805   1.591   7.292  1.4159 -1.5343 -0.6642
 9866WAT     H240171   4.816   1.526   7.412  0.0992 -0.2780  0.1766
 9866WAT    EPW40172   4.833   1.586   7.365 -0.4207 -0.9520 -0.8881
 9867WAT      O40173   4.216   4.312   2.428 -0.1806 -0.3935  0.0262
 9867WAT     H140174   4.246   4.305   2.346  0.2954  0.7531  0.0867
 9867WAT     H240175   4.288   4.305   2.476  0.1434  2.6379  0.1652
 9867WAT    EPW40176   4.231   4.310   2.423 -0.1438  0.5381 -0.0984
 9868WAT      O40177   3.408   0.845   7.575  0.0820  0.3961 -0.6562
 9868WAT     H140178   3.354   0.913   7.582 -1.1045 -0.4755 -0.9777
 9868WAT     H240179   3.452   0.846   7.651 -2.7127 -0.7295  1.1484
 9868WAT    EPW40180   3.407   0.855   7.588  0.5880  0.2290 -0.0035
 9869WAT      O40181   0.298   2.395   5.648  0.3149  0.3728  0.3889
 9869WAT     H140182   0.266   2.427   5.574 -1.7468 -4.1400 -0.9650
 9869WAT     H240183   0.300   2.465   5.700 -4.5720  2.6796 -1.8265
 9869WAT    EPW40184   0.294   2.410   5.645 -0.4595 -0.1387  0.0773
 9870WAT      O40185   6.260   0.614   0.775 -0.4222  0.3752 -0.0676
 9870WAT     H140186   6.324   0.595   0.719 -0.3159  0.3405  0.0641
 9870WAT     H240187   6.264   0.701   0.782 -1.7085  0.5985 -1.6193
 9870WAT    EPW40188   6.270   0.624   0.768 -0.6591 -0.3782 -0.4474
 9871WAT      O40189   4.913   4.116   1.933 -0.9536 -0.1697 -0.1668
 9871WAT     H140190   4.959   4.164   1.875 -1.5882 -0.0107 -0.5483
 9871WAT     H240191   4.917   4.036   1.899 -1.0947 -0.1266 -0.2861
 9871WAT    EPW40192   4.921   4.112   1.919 -0.6644  0.5014  0.3735
 9872WAT      O40193   5.901   2.509   4.969 -0.1004  0.2386  0.3901
 9872WAT     H140194   5.986   2.521   4.956  0.2504  0.9748  2.9359
 9872WAT     H240195   5.893   2.505   5.055 -2.4734 -1.3835  0.1946
 9872WAT    EPW40196   5.912   2.510   4.980 -0.1659  0.2881 -0.1388
 9873WAT      O40197   4.857   6.009   0.985  0.1053  0.6356  0.5667
 9873WAT     H140198   4.913   6.050   1.038  1.3739 -0.6136  0.2509
 9873WAT     H240199   4.908   5.974   0.923 -1.0359 -0.3846  0.1489
 9873WAT    EPW40200   4.873   6.010   0.983 -0.5290 -0.8017  0.3912
 9874WAT      O40201   1.901   0.906   5.384 -0.0354 -0.2713  0.0395
 9874WAT     H140202   1.838   0.958   5.414  1.2758  0.1203  2.3801
 9874WAT     H240203   1.892   0.833   5.431  0.9904 -0.3569  0.1292
 9874WAT    EPW40204   1.890   0.903   5.396 -0.3277 -0.0101 -0.8213
 9875WAT      O40205   6.478   2.488   4.747  0.0213  0.1345 -0.0768
 9875WAT     H140206   6.484   2.422   4.690  1.0050  0.2100 -0.0761
 9875WAT     H240207   6.397   2.519   4.734 -0.1962 -0.6058 -0.5819
 9875WAT    EPW40208   6.467   2.483   4.737 -0.1960  0.3098  0.4229
 9876WAT      O40209   5.501   3.738   0.667  0.4791  0.2788  0.7852
 9876WAT     H140210   5.471   3.805   0.619  1.1837  1.2131  1.6073
 9876WAT     H240211   5.429   3.693   0.686  0.1871 -0.2062 -1.2393
 9876WAT    EPW40212   5.486   3.741   0.662 -0.1311  0.0901  0.3343
 9877WAT      O40213   2.042   5.638   3.481  0.1896 -0.4842  0.4829
 9877WAT     H140214   1.958   5.624   3.460 -0.3885 -1.1689  3.0039
 9877WAT     H240215   2.040   5.714   3.524  0.6771 -0.9834  1.4138
 9877WAT    EPW40216   2.029   5.647   3.484 -0.0471  0.5055  0.6343
 9878WAT      O40217   1.407   7.377   2.744  0.4966  0.0278  0.5277
 9878WAT     H140218   1.473   7.398   2.797  0.0358 -0.7285  1.4211
 9878WAT     H240219   1.438   7.397   2.665  0.7032  2.4691  1.1349
 9878WAT    EPW40220   1.422   7.383   2.740  0.6934  0.0464 -0.1666
 9879WAT      O40221   1.306   1.903   5.064 -0.1792  0.0204 -0.6777
 9879WAT     H140222   1.309   1.832   5.114  0.5750  1.5067  1.5290
 9879WAT     H240223   1.331   1.874   4.986  0.2354 -2.1011  0.1780
 9879WAT    EPW40224   1.310   1.888   5.060 -0.2624  0.1168  0.0106
 9880WAT      O40225   1.799   5.486   5.113  0.2319 -0.1955  0.1562
 9880WAT     H140226   1.799   5.538   5.043 -1.8919 -1.5217 -0.9378
 9880WAT     H240227   1.810   5.542   5.180 -0.2900  1.4469 -1.0593
 9880WAT    EPW40228   1.801   5.502   5.113 -0.2136  0.1649  0.0188
 9881WAT      O40229   0.395   6.577   1.232  0.0509  0.2157  0.5395
 9881WAT     H140230   0.460   6.563   1.176 -2.2372 -1.5429 -1.9804
 9881WAT     H240231   0.379   6.662   1.224  0.1776  0.1276 -1.1264
 9881WAT    EPW40232   0.402   6.587   1.222  0.0250  0.1480 -0.3402
 9882WAT      O40233   2.609   5.790   6.022 -0.7406 -0.2675 -0.3239
 9882WAT     H140234   2.664   5.786   5.954 -0.6711 -2.0297 -0.1979
 9882WAT     H240235   2.599   5.707   6.046 -0.5249  0.3047  2.0347
 9882WAT    EPW40236   2.615   5.777   6.016  0.6275  0.4147  0.3362
 9883WAT      O40237   2.525   7.567   2.176 -0.3739  0.2076 -0.3475
 9883WAT     H140238   2.448   7.606   2.164 -0.1611  0.8998  0.4534
 9883WAT     H240239   2.521   7.538   2.257 -0.0369 -0.3397 -0.5258
 9883WAT    EPW40240   2.513   7.569   2.186  0.2436 -0.6545  0.4939
 9884WAT      O40241   5.756   3.634   1.362  0.0156 -0.2861 -0.0135
 9884WAT     H140242   5.832   3.589   1.360  0.2665  0.1414 -0.1392
 9884WAT     H240243   5.739   3.648   1.278 -0.1748 -0.3336  0.0184
 9884WAT    EPW40244   5.765   3.629   1.350  0.4426 -0.2200 -0.2688
 9885WAT      O40245   4.316   4.679   3.701 -0.2478  0.5135  0.0648
 9885WAT     H140246   4.341   4.627   3.765 -0.7299 -0.9300 -0.8691
 9885WAT     H240247   4.353   4.644   3.630 -1.9358  0.4204 -0.8298
 9885WAT    EPW40248   4.325   4.666   3.700 -0.0688  0.6360  0.7691
 9886WAT      O40249   2.204   2.299   7.133  0.2904 -0.2196  0.5043
 9886WAT     H140250   2.275   2.328   7.175  1.1345  0.7908 -1.4572
 9886WAT     H240251   2.236   2.267   7.058 -1.2487 -0.5803 -0.0362
 9886WAT    EPW40252   2.219   2.299   7.128  0.4664  0.1486 -0.0718
 9887WAT      O40253   2.285   1.205   4.367 -0.3961  0.2333  0.3939
 9887WAT     H140254   2.228   1.148   4.400  0.1376  0.0093  0.9637
 9887WAT     H240255   2.275   1.276   4.418  0.1746  0.0151  0.8241
 9887WAT    EPW40256   2.275   1.207   4.380  0.7691  0.4052  0.8685
 9888WAT      O40257   5.375   5.796   5.982 -0.7381  0.4270 -0.4023
 9888WAT     H140258   5.449   5.795   5.936  0.2915 -2.5820  1.0608
 9888WAT     H240259   5.373   5.877   6.015  1.3308  0.9363 -1.3331
 9888WAT    EPW40260   5.386   5.808   5.980  0.1373 -0.4678  0.3014
 9889WAT      O40261   1.672   5.413   7.078 -0.6083 -0.1437 -0.0255
 9889WAT     H140262   1.710   5.346   7.037  0.1431  0.5580 -0.5056
 9889WAT     H240263   1.649   5.466   7.013  0.3189  0.8364  0.4106
 9889WAT    EPW40264   1.675   5.411   7.062 -0.1643 -0.2494 -0.1205
 9890WAT      O40265   0.183   3.112   5.469  0.4797  0.3887  0.7394
 9890WAT     H140266   0.209   3.155   5.540  3.2797 -0.2783  0.2310
 9890WAT     H240267   0.216   3.159   5.403 -0.3151 -0.1115 -0.0371
 9890WAT    EPW40268   0.191   3.125   5.470  0.2109 -0.2608 -0.0703
 9891WAT      O40269   0.211   2.297   3.706  0.2488  0.5503 -0.0040
 9891WAT     H140270   0.291   2.263   3.705  0.6047  1.3293  0.6534
 9891WAT     H240271   0.196   2.315   3.622  0.6921  0.2380 -0.1558
 9891WAT    EPW40272   0.221   2.295   3.693 -0.0958  0.3615  0.1536
 9892WAT      O40273   1.741   7.464   0.558  0.2158  0.0421  0.3401
 9892WAT     H140274   1.738   7.396   0.503 -4.1862 -0.5715  0.9243
 9892WAT     H240275   1.742   7.426   0.637  4.4293  0.9061  0.9484
 9892WAT    EPW40276   1.741   7.448   0.561 -0.3486  0.1818  0.0909
 9893WAT      O40277   0.936   0.422   3.098 -0.2595  0.4532  0.0133
 9893WAT     H140278   0.878   0.485   3.112 -0.6138  0.2694 -0.6134
 9893WAT     H240279   0.888   0.349   3.101  0.0217  0.2641 -0.0250
 9893WAT    EPW40280   0.920   0.420   3.100  0.1126  0.1348  0.3683
 9894WAT      O40281   1.086   3.169   2.519 -0.0942  0.6513  0.1736
 9894WAT     H140282   1.159   3.148   2.562  0.5672 -0.0901 -1.2284
 9894WAT     H240283   1.043   3.093   2.512 -0.9432  1.0552  0.8521
 9894WAT    EPW40284   1.090   3.155   2.524 -0.1147  0.0536 -0.3134
 9895WAT      O40285   3.120   3.248   0.548  0.0970 -0.3578  0.1352
 9895WAT     H140286   3.186   3.305   0.548  0.2609 -0.5436 -0.0781
 9895WAT     H240287   3.086   3.256   0.468 -2.0269  1.8818  1.1148
 9895WAT    EPW40288   3.125   3.257   0.536 -0.2879  0.2882  0.0550
 9896WAT      O40289   4.912   2.594   1.565  0.3848 -0.0218  0.5004
 9896WAT     H140290   4.932   2.516   1.531  0.7927  0.8339 -1.3747
 9896WAT     H240291   4.854   2.627   1.508  1.0107  1.4472  0.6660
 9896WAT    EPW40292   4.907   2.587   1.551 -0.1919 -0.4551  0.3668
 9897WAT      O40293   0.044   3.318   0.349 -0.6324 -0.4560  0.1864
 9897WAT     H140294   0.031   3.239   0.385  1.2974 -0.9726 -0.1737
 9897WAT     H240295   0.087   3.362   0.411 -0.6242 -0.0807 -0.0836
 9897WAT    EPW40296   0.048   3.313   0.364  0.2251 -0.5304  0.2872
 9898WAT      O40297   1.725   3.373   3.189  0.1477  0.2342 -0.1057
 9898WAT     H140298   1.749   3.297   3.153 -0.6579 -0.2423  0.3405
 9898WAT     H240299   1.801   3.411   3.208  0.6569  0.8091 -2.8543
 9898WAT    EPW40300   1.740   3.367   3.186  0.2866 -0.1397  0.1500
 9899WAT      O40301   4.751   5.223   1.188  0.2784  0.2267 -0.0446
 9899WAT     H140302   4.720   5.157   1.237  0.9100  1.3372  1.9730
 9899WAT     H240303   4.687   5.237   1.130 -1.5428  0.2108  1.8310
 9899WAT    EPW40304   4.737   5.215   1.187  0.0855 -0.2053  0.4725
 9900WAT      O40305   5.717   4.945   4.122 -0.5163  0.1108 -0.3437
 9900WAT     H140306   5.775   4.884   4.101 -0.0424  0.7956 -1.0902
 9900WAT     H240307   5.714   4.996   4.051 -0.7270  1.0844  0.3463
 9900WAT    EPW40308   5.725   4.944   4.108  0.2447 -0.2267  0.4826
 9901WAT      O40309   0.837   5.943   1.389  0.4804 -0.3874  0.1431
 9901WAT     H140310   0.845   6.022   1.426  1.0129 -0.0428 -0.6923
 9901WAT     H240311   0.876   5.890   1.447 -1.0920 -0.2581  1.3766
 9901WAT    EPW40312   0.844   5.947   1.403  0.2576 -0.1788 -0.2601
 9902WAT      O40313   6.886   5.722   3.823 -0.5101  0.0032 -0.6236
 9902WAT     H140314   6.848   5.776   3.766  0.6311  2.1286  0.4816
 9902WAT     H240315   6.864   5.756   3.900  1.2319 -0.3956  0.0823
 9902WAT    EPW40316   6.877   5.735   3.826  0.1651  0.2998 -0.0172
 9903WAT      O40317   7.344   5.794   7.577  0.1430 -0.2167 -0.1377
 9903WAT     H140318   7.383   5.871   7.583  0.4024 -0.2782 -0.9473
 9903WAT     H240319   7.388   5.744   7.634  0.0682  0.1891  0.2786
 9903WAT    EPW40320   7.356   5.798   7.586 -0.1708 -0.1353  0.1387
 9904WAT      O40321   3.845   0.047   4.584  0.0696  0.5343  0.4685
 9904WAT     H140322   3.769   0.012   4.561 -0.8187  2.5116  0.1634
 9904WAT     H240323   3.904  -0.014   4.562 -1.2826 -0.3668 -0.8282
 9904WAT    EPW40324   3.843   0.033   4.577 -0.5304 -0.7835  0.4885
 9905WAT      O40325   7.427   4.196   5.316  0.6612 -0.7477  0.3654
 9905WAT     H140326   7.450   4.261   5.371 -2.3745  0.5050  0.3466
 9905WAT     H240327   7.421   4.236   5.239  0.3623 -1.4188  0.0345
 9905WAT    EPW40328   7.430   4.212   5.313  0.4863 -0.0354  0.4127
 9906WAT      O40329   3.865   0.513   0.668  0.2359 -0.1360  0.3789
 9906WAT     H140330   3.927   0.471   0.624  0.4662  0.9372 -0.3548
 9906WAT     H240331   3.901   0.590   0.686 -1.0246  0.7159 -0.5124
 9906WAT    EPW40332   3.879   0.518   0.664  0.0626  0.1657 -0.7316
 9907WAT      O40333   2.805   6.612   3.440 -0.6402 -0.4007 -0.0917
 9907WAT     H140334   2.785   6.631   3.358  0.7101 -1.8789 -0.8080
 9907WAT     H240335   2.848   6.683   3.468 -2.0085  0.5416 -0.2797
 9907WAT    EPW40336   2.808   6.625   3.432 -0.5762  0.1287  0.2157
 9908WAT      O40337   0.166   5.659   7.245  0.0923 -0.2124 -0.2872
 9908WAT     H140338   0.165   5.573   7.261 -0.9149 -0.1038  0.3516
 9908WAT     H240339   0.085   5.676   7.220 -0.0768  0.7466  0.7998
 9908WAT    EPW40340   0.154   5.649   7.244 -1.1511 -0.4915  0.1236
 9909WAT      O40341   2.381   3.450   4.779 -0.6748 -0.2193 -0.3014
 9909WAT     H140342   2.446   3.471   4.724 -2.2147 -1.3941 -2.7416
 9909WAT     H240343   2.328   3.518   4.774 -1.7793 -1.1148 -1.9709
 9909WAT    EPW40344   2.383   3.463   4.770  0.1164  0.4339 -0.0084
 9910WAT      O40345   7.159   2.430   5.135  0.2143  0.5847  0.6345
 9910WAT     H140346   7.239   2.399   5.149  1.2470  2.0100 -1.5591
 9910WAT     H240347   7.109   2.359   5.130  1.9879 -0.6158 -1.4184
 9910WAT    EPW40348   7.163   2.415   5.136 -0.2320  0.4397  0.3645
 9911WAT      O40349   0.498   0.650   2.855  0.1891  0.6670  0.2153
 9911WAT     H140350   0.434   0.693   2.816  0.2306  1.6874  1.2338
 9911WAT     H240351   0.567   0.703   2.848  0.5144  0.3091  0.5715
 9911WAT    EPW40352   0.499   0.664   2.848 -0.0413 -0.4363 -0.5234
 9912WAT      O40353   4.543   5.288   7.512 -0.1391  0.1399 -0.2217
 9912WAT     H140354   4.518   5.311   7.592  0.9616  1.5779 -0.2661
 9912WAT     H240355   4.573   5.362   7.477 -1.5365 -0.2054 -2.3603
 9912WAT    EPW40356   4.544   5.302   7.519  0.0289  0.3165 -0.0834
 9913WAT      O40357   3.047   2.042   5.891 -0.1550 -0.0004 -0.0286
 9913WAT     H140358   3.107   2.099   5.919 -2.0934  2.5090 -0.6496
 9913WAT     H240359   2.997   2.028   5.961 -1.0013  0.9013 -0.4279
 9913WAT    EPW40360   3.049   2.048   5.905  0.0161  0.6301  0.3073
 9914WAT      O40361   6.953   5.898   6.038 -0.0435  0.2676  0.1566
 9914WAT     H140362   6.920   5.957   6.092  0.3734 -0.9487  1.8216
 9914WAT     H240363   6.963   5.942   5.963 -2.8943  1.3786  0.2939
 9914WAT    EPW40364   6.950   5.913   6.035 -0.1053  0.0054  0.3723
 9915WAT      O40365   6.460   1.384   2.407  0.2353 -0.4759 -0.4992
 9915WAT     H140366   6.389   1.434   2.423  1.3262  0.9702  0.0336
 9915WAT     H240367   6.526   1.436   2.429  1.4743 -1.8374 -0.9193
 9915WAT    EPW40368   6.459   1.399   2.413  0.6026  0.5676 -0.4790
 9916WAT      O40369   4.851   1.515   6.927 -0.2560 -0.2668  0.2936
 9916WAT     H140370   4.791   1.524   6.990  0.0365  0.7355  0.4398
 9916WAT     H240371   4.927   1.526   6.969 -0.0686  0.7459 -0.2820
 9916WAT    EPW40372   4.854   1.518   6.942 -0.2222  0.0121 -0.4515
 9917WAT      O40373   6.115   4.851   1.393 -0.5480 -0.2313 -0.7776
 9917WAT     H140374   6.198   4.877   1.394 -0.6062 -0.0498 -0.3977
 9917WAT     H240375   6.081   4.889   1.464 -1.4263  1.2255 -1.9239
 9917WAT    EPW40376   6.122   4.860   1.403 -0.1464  0.5638  0.4289
 9918WAT      O40377   5.626   6.404   3.385  0.2550 -0.4697  0.5185
 9918WAT     H140378   5.553   6.360   3.403  0.7392 -1.6270 -0.1578
 9918WAT     H240379   5.677   6.389   3.455  0.6072 -1.4582  0.0697
 9918WAT    EPW40380   5.623   6.395   3.398  0.2094  0.2750  0.4638
 9919WAT      O40381   0.432   7.089   1.317  0.2487 -0.9509  0.2305
 9919WAT     H140382   0.430   7.125   1.396  1.6798  1.0833 -0.5693
 9919WAT     H240383   0.515   7.097   1.293 -0.5430  0.8133 -2.4005
 9919WAT    EPW40384   0.444   7.096   1.325  0.7285  0.1488  0.3109
 9920WAT      O40385   2.070   4.213   4.932 -0.1064 -0.1764  0.0472
 9920WAT     H140386   2.033   4.136   4.912 -1.3831  0.6781 -1.0744
 9920WAT     H240387   2.061   4.218   5.018 -3.0330  0.1098 -0.1473
 9920WAT    EPW40388   2.063   4.202   4.942 -0.5314  0.1544  0.1312
 9921WAT      O40389   3.597   1.390   2.484 -0.2905 -0.1541 -0.2807
 9921WAT     H140390   3.651   1.348   2.429 -1.2960  0.3603 -1.7221
 9921WAT     H240391   3.556   1.447   2.433 -2.2919 -0.6026  0.7172
 9921WAT    EPW40392   3.599   1.392   2.468 -0.8624 -0.2196  0.4029
 9922WAT      O40393   7.061   3.221   4.835  0.3315  0.0013 -0.9140
 9922WAT     H140394   7.101   3.297   4.819  1.0121 -0.0964  0.1526
 9922WAT     H240395   7.062   3.217   4.923 -2.3275  0.1360 -0.7966
 9922WAT    EPW40396   7.067   3.232   4.846 -0.0463  0.4952  0.1788
 9923WAT      O40397   2.909   0.249   1.271  0.2475 -0.9311 -0.3920
 9923WAT     H140398   2.872   0.327   1.257  1.0569 -0.6712 -1.1833
 9923WAT     H240399   2.849   0.205   1.317 -0.4100 -0.0068 -0.3507
 9923WAT    EPW40400   2.894   0.254   1.276  0.7773  0.4117  0.1151
 9924WAT      O40401   6.297   1.468   2.924 -0.1667  0.1952 -0.3534
 9924WAT     H140402   6.240   1.404   2.907  1.5663 -1.3146 -0.8354
 9924WAT     H240403   6.305   1.465   3.011  0.1722 -0.5193 -0.4009
 9924WAT    EPW40404   6.290   1.458   2.934  0.0090 -0.1138  0.2543
 9925WAT      O40405   0.604   0.882   0.405  0.2029  0.4827  0.0267
 9925WAT     H140406   0.672   0.899   0.457 -0.1782  2.2923 -0.0169
 9925WAT     H240407   0.577   0.961   0.379 -2.1145 -0.1652  0.2682
 9925WAT    EPW40408   0.610   0.896   0.409 -0.1487  0.2751  0.0441
 9926WAT      O40409   6.552   3.823   2.685  0.4345 -0.1317 -0.1798
 9926WAT     H140410   6.522   3.742   2.671  1.1569 -0.3459 -0.5173
 9926WAT     H240411   6.638   3.812   2.693  0.4749  0.5244  0.4154
 9926WAT    EPW40412   6.560   3.809   2.684 -0.3202 -0.3616  0.2722
 9927WAT      O40413   2.501   6.878   2.253 -0.0042 -0.2037 -0.1541
 9927WAT     H140414   2.431   6.924   2.232  0.9797  1.1581 -0.5660
 9927WAT     H240415   2.568   6.924   2.221  1.1873 -0.7105  1.4382
 9927WAT    EPW40416   2.501   6.891   2.246 -0.0386  0.6573 -0.5153
 9928WAT      O40417   1.545   5.865   3.620  0.0573 -0.1238 -0.3795
 9928WAT     H140418   1.459   5.854   3.608  0.2258 -2.1539  0.0300
 9928WAT     H240419   1.562   5.818   3.692  1.5789 -0.0256 -0.6531
 9928WAT    EPW40420   1.535   5.857   3.629  0.3600 -0.5864  0.1806
 9929WAT      O40421   1.586   0.769   4.422  0.1124 -0.1845  0.0160
 9929WAT     H140422   1.516   0.721   4.443 -0.5706 -0.5273 -2.7320
 9929WAT     H240423   1.653   0.718   4.445 -0.5518 -0.7610  0.7239
 9929WAT    EPW40424   1.586   0.754   4.429 -0.1533  0.3550 -0.0943
 9930WAT      O40425   5.426   7.020   5.618  0.0054 -0.1282 -0.3296
 9930WAT     H140426   5.494   7.043   5.569 -0.5581  1.1009 -0.5957
 9930WAT     H240427   5.383   6.962   5.569  1.9315 -2.5792  0.7071
 9930WAT    EPW40428   5.430   7.015   5.604  0.5562  0.6224 -0.5303
 9931WAT      O40429   7.495   3.898   6.129  0.3674  0.7652  0.9584
 9931WAT     H140430   7.450   3.946   6.186  0.1036  0.8600  0.6705
 9931WAT     H240431   7.488   3.943   6.055 -1.7164 -0.7714  0.1318
 9931WAT    EPW40432   7.487   3.912   6.127  0.0271 -0.0167 -0.4770
 9932WAT      O40433   3.963   7.267   1.134  0.1026 -0.0464  0.1356
 9932WAT     H140434   3.932   7.334   1.182 -1.8752 -0.3416 -0.6308
 9932WAT     H240435   3.991   7.305   1.061  1.1552  0.1684  0.6321
 9932WAT    EPW40436   3.962   7.283   1.131 -0.2194 -0.0681 -0.0506
 9933WAT      O40437   4.184   4.887   6.103 -0.1044 -0.3829 -0.0511
 9933WAT     H140438   4.150   4.919   6.177 -1.1050 -3.5100  1.0084
 9933WAT     H240439   4.192   4.802   6.119  2.1109 -0.8288 -2.6846
 9933WAT    EPW40440   4.180   4.879   6.116  0.0022  0.2734  0.2416
 9934WAT      O40441   0.748   6.368   0.533  0.2179 -0.2987 -0.9482
 9934WAT     H140442   0.677   6.359   0.483  1.9600 -0.6084 -3.5349
 9934WAT     H240443   0.765   6.453   0.529  0.8718 -0.4533 -1.6881
 9934WAT    EPW40444   0.740   6.379   0.525  0.0066 -0.0677 -0.1318
 9935WAT      O40445   2.692   5.952   6.243 -0.0541 -0.0255 -0.4969
 9935WAT     H140446   2.681   5.920   6.163  0.7919 -0.1461 -0.5694
 9935WAT     H240447   2.759   6.007   6.235 -0.5051  0.6031 -0.0417
 9935WAT    EPW40448   2.700   5.955   6.230  0.1063  0.5791  0.2062
 9936WAT      O40449   0.643   2.803   2.909  0.2129  0.2878 -0.3192
 9936WAT     H140450   0.569   2.802   2.955 -0.2130 -0.1801 -1.0021
 9936WAT     H240451   0.617   2.789   2.827  1.2392 -2.3013 -0.2973
 9936WAT    EPW40452   0.628   2.801   2.904  0.1041  0.1416  0.0896
 9937WAT      O40453   6.965   6.457   4.690  0.3455 -0.3378 -0.1293
 9937WAT     H140454   7.018   6.447   4.759  3.3987  0.8363 -2.0987
 9937WAT     H240455   7.000   6.525   4.647 -3.3657  1.1313 -1.1941
 9937WAT    EPW40456   6.978   6.465   4.694 -0.0560  0.6305 -0.7203
 9938WAT      O40457   0.035   6.190   3.119 -0.1241  0.3963 -0.1944
 9938WAT     H140458   0.076   6.262   3.146  0.7262 -1.2815  3.5792
 9938WAT     H240459   0.097   6.147   3.074  0.3956  0.5809  0.3292
 9938WAT    EPW40460   0.051   6.194   3.116 -0.4953 -0.3338  0.1961
 9939WAT      O40461   0.093   1.297   4.461 -0.1071  0.4415  0.3028
 9939WAT     H140462   0.008   1.295   4.481 -0.3317 -0.0282 -0.6198
 9939WAT     H240463   0.125   1.358   4.513 -1.0854  0.8700  0.4235
 9939WAT    EPW40464   0.085   1.305   4.472 -0.0988  0.2765  0.4347
 9940WAT      O40465   0.667   1.421   0.015  0.4175 -0.6199  0.7355
 9940WAT     H140466   0.693   1.442   0.096  2.4568  0.4685 -0.1367
 9940WAT     H240467   0.610   1.485  -0.004 -0.4095 -1.1194  1.4161
 9940WAT    EPW40468   0.662   1.434   0.024  0.1283 -0.0435  0.3446
 9941WAT      O40469   1.103   6.440   3.829 -0.5406 -0.3430 -0.4334
 9941WAT     H140470   1.035   6.449   3.775 -0.8842 -1.0108 -0.1186
 9941WAT     H240471   1.080   6.485   3.900 -0.7489 -0.7567 -0.2392
 9941WAT    EPW40472   1.090   6.448   3.831  0.2100  0.4013 -0.1562
 9942WAT      O40473   7.550   3.073   4.252 -0.9994 -0.5997  0.5603
 9942WAT     H140474   7.577   2.990   4.249  0.6215 -0.1374  1.1764
 9942WAT     H240475   7.579   3.101   4.329  1.5408  1.4870 -0.9759
 9942WAT    EPW40476   7.559   3.065   4.263  0.7191  0.0564  0.5927
 9943WAT      O40477   4.271   1.131   2.477 -0.1835 -0.7837 -0.3160
 9943WAT     H140478   4.334   1.132   2.538 -0.2064  0.1709 -0.2918
 9943WAT     H240479   4.282   1.055   2.436 -0.2441 -1.4995  0.9619
 9943WAT    EPW40480   4.282   1.120   2.480 -0.1797 -0.4277  0.5922
 9944WAT      O40481   7.155   0.983   4.905  0.2538 -0.4950 -0.3896
 9944WAT     H140482   7.208   0.977   4.836 -0.4854  0.8369 -1.1176
 9944WAT     H240483   7.202   1.029   4.963  0.1677  0.0525 -0.7509
 9944WAT    EPW40484   7.170   0.989   4.904  0.0219  0.0693 -0.3508
 9945WAT      O40485   0.424   3.592   4.612 -0.0311 -0.2942 -0.9010
 9945WAT     H140486   0.411   3.664   4.660  1.0017 -0.5883 -0.1467
 9945WAT     H240487   0.415   3.620   4.530 -0.3282  0.5441 -0.5954
 9945WAT    EPW40488   0.421   3.607   4.607 -0.2081 -0.0240 -0.2893
 9946WAT      O40489   7.511   5.380   4.697  0.0086  0.6491  0.0717
 9946WAT     H140490   7.462   5.428   4.751 -0.6276  0.0928  0.0060
 9946WAT     H240491   7.585   5.426   4.690 -0.9223  2.1123 -0.7617
 9946WAT    EPW40492   7.514   5.394   4.704 -0.0179 -0.1218  0.2320
 9947WAT      O40493   6.520   5.134   2.346  0.3459 -0.0526 -0.0543
 9947WAT     H140494   6.573   5.069   2.371 -1.4626 -1.4093  0.4352
 9947WAT     H240495   6.576   5.199   2.327  2.2269 -1.6637 -0.4291
 9947WAT    EPW40496   6.536   5.134   2.347 -0.2740 -0.2335  0.2832
 9948WAT      O40497   2.332   2.182   5.673  0.3115 -0.3001 -0.1068
 9948WAT     H140498   2.317   2.142   5.749 -0.1951 -1.3615 -0.7427
 9948WAT     H240499   2.394   2.132   5.636 -0.3226 -0.5162 -0.9107
 9948WAT    EPW40500   2.339   2.169   5.679  0.1558  0.0164 -0.2394
 9949WAT      O40501   5.837   2.934   6.902  0.5502 -0.4112 -0.0134
 9949WAT     H140502   5.778   2.915   6.963  0.4952  3.2861  1.3305
 9949WAT     H240503   5.788   2.952   6.832 -0.2472  3.1311  1.2210
 9949WAT    EPW40504   5.821   2.934   6.901 -0.2142 -0.4129  0.5903
 9950WAT      O40505   5.638   5.731   5.872  0.1630 -0.4924 -0.0158
 9950WAT     H140506   5.652   5.650   5.900  0.2446 -0.2412  0.6960
 9950WAT     H240507   5.630   5.722   5.786 -1.4297 -1.4708  0.1932
 9950WAT    EPW40508   5.639   5.718   5.863  0.2749  0.6059 -0.2581
 9951WAT      O40509   0.931   2.753   1.535  0.2224 -0.1098  0.1603
 9951WAT     H140510   0.845   2.736   1.531  0.3844 -0.8966 -0.2310
 9951WAT     H240511   0.956   2.710   1.607  0.2041  0.5338  0.5548
 9951WAT    EPW40512   0.922   2.744   1.545 -0.5143  0.1416 -0.1750
 9952WAT      O40513   5.254   0.705   6.052  0.1673 -0.4043  0.5451
 9952WAT     H140514   5.226   0.787   6.041 -2.8236 -1.4511 -0.5438
 9952WAT     H240515   5.199   0.672   6.110 -0.4973 -2.3964 -1.1130
 9952WAT    EPW40516   5.242   0.712   6.059  0.8392  0.2415 -0.1920
 9953WAT      O40517   5.704   0.024   7.126 -0.5466 -0.7113  0.3702
 9953WAT     H140518   5.685  -0.049   7.171 -1.6364  0.0680  1.2236
 9953WAT     H240519   5.705   0.086   7.187  1.5014 -0.1426 -0.1555
 9953WAT    EPW40520   5.701   0.022   7.142  0.0584  0.3551 -0.7601
 9954WAT      O40521   3.313   0.237   1.026  0.0458  0.2529 -0.5274
 9954WAT     H140522   3.274   0.216   1.101  1.6943  0.1468  0.3342
 9954WAT     H240523   3.251   0.280   0.982 -2.1676 -2.7292 -0.6517
 9954WAT    EPW40524   3.298   0.240   1.031 -0.2915  0.0602 -0.0922
 9955WAT      O40525   0.660   1.819   2.686 -0.0105  0.6832 -0.1506
 9955WAT     H140526   0.720   1.756   2.692  0.1560  0.5712 -2.2276
 9955WAT     H240527   0.591   1.779   2.650 -0.6053  1.2761  0.2991
 9955WAT    EPW40528   0.659   1.804   2.682 -0.1743  0.1423 -1.2196
 9956WAT      O40529   0.074   5.549   4.694  0.0046  0.5135  0.6317
 9956WAT     H140530   0.150   5.524   4.658 -0.1718  2.0899 -1.0111
 9956WAT     H240531   0.067   5.633   4.669 -2.7916  0.1183 -0.2307
 9956WAT    EPW40532   0.084   5.558   4.685  0.0457 -0.3923  0.5041
 9957WAT      O40533   2.398   3.141   4.243  0.3202  0.0261  0.0238
 9957WAT     H140534   2.445   3.131   4.170 -2.1392  0.8195 -1.8122
 9957WAT     H240535   2.418   3.222   4.269 -1.2503  1.1147 -1.8356
 9957WAT    EPW40536   2.408   3.152   4.236 -0.1505 -0.8073  0.0839
 9958WAT      O40537   6.938   1.905   2.105  0.3747 -0.4533  0.1976
 9958WAT     H140538   6.933   1.972   2.050 -0.8936  0.1816  1.0234
 9958WAT     H240539   6.958   1.837   2.054 -1.1760  0.0185 -1.1300
 9958WAT    EPW40540   6.940   1.904   2.090 -0.5644 -0.1962 -0.1442
 9959WAT      O40541   4.671   2.981   4.740 -0.2042 -0.2170  0.5899
 9959WAT     H140542   4.707   2.922   4.687 -1.2974 -0.7063  0.3476
 9959WAT     H240543   4.651   2.934   4.812 -0.0242  0.1183  0.8602
 9959WAT    EPW40544   4.673   2.965   4.743  0.3723  0.8318  0.4700
 9960WAT      O40545   0.280   4.679   5.076  0.3018 -0.3200 -0.0283
 9960WAT     H140546   0.207   4.648   5.040  0.8051 -2.1467  0.4065
 9960WAT     H240547   0.323   4.607   5.100  1.3579  0.7481  1.4840
 9960WAT    EPW40548   0.275   4.664   5.074 -0.0904  0.7064 -0.0458
 9961WAT      O40549   3.108   0.391   2.746  0.7374  0.3374 -0.1937
 9961WAT     H140550   3.144   0.467   2.725  1.6373 -0.1624 -0.5322
 9961WAT     H240551   3.152   0.333   2.697 -0.2663 -0.3435 -0.3263
 9961WAT    EPW40552   3.120   0.394   2.736  0.7556 -0.0487  0.4820
 9962WAT      O40553   6.995   3.780   1.722 -0.0074  0.1956 -0.1039
 9962WAT     H140554   7.043   3.721   1.765  2.0267  1.3014 -0.7143
 9962WAT     H240555   6.915   3.768   1.754  0.4580 -2.3134  0.3811
 9962WAT    EPW40556   6.991   3.769   1.733  0.0237  0.2876 -0.8686
 9963WAT      O40557   5.882   1.182   3.454  0.3592  0.1210 -0.0318
 9963WAT     H140558   5.816   1.178   3.396 -0.1143  0.2686  0.4894
 9963WAT     H240559   5.846   1.152   3.528  0.9313  0.0327  0.2115
 9963WAT    EPW40560   5.867   1.177   3.456 -0.0429  0.2361  0.4116
 9964WAT      O40561   2.828   1.572   6.566 -0.1159  0.2552 -0.1803
 9964WAT     H140562   2.742   1.569   6.556 -0.4644  1.4326  1.8776
 9964WAT     H240563   2.840   1.555   6.651  1.6670  0.2960 -0.3801
 9964WAT    EPW40564   2.817   1.569   6.577  0.1858 -0.3152  0.8122
 9965WAT      O40565   1.402   4.014   5.844 -0.0714 -0.1250 -0.0644
 9965WAT     H140566   1.350   3.978   5.784  2.3266 -1.9856 -1.2060
 9965WAT     H240567   1.365   3.992   5.920 -1.2615 -0.8873 -0.8372
 9965WAT    EPW40568   1.389   4.005   5.847 -0.1952 -0.6594 -0.4951
 9966WAT      O40569   2.542   4.086   3.433 -0.1161  0.0234  0.2594
 9966WAT     H140570   2.598   4.023   3.412 -1.5210 -0.9760 -0.6100
 9966WAT     H240571   2.592   4.158   3.435  1.5660 -1.1049  1.5077
 9966WAT    EPW40572   2.557   4.088   3.430  0.1630 -0.2317  0.4080
 9967WAT      O40573   1.225   1.718   1.516 -0.1120 -0.5690  0.9149
 9967WAT     H140574   1.280   1.764   1.467  0.6952 -0.6745  1.6848
 9967WAT     H240575   1.152   1.766   1.517  0.2099 -0.0669  0.4664
 9967WAT    EPW40576   1.223   1.732   1.509  0.0029  0.5236 -0.2593
 9968WAT      O40577   0.902   3.254   7.411  0.6619  0.6360 -0.2600
 9968WAT     H140578   0.984   3.267   7.436 -0.0186  3.5350  0.9440
 9968WAT     H240579   0.883   3.327   7.367 -0.7997 -0.6846 -1.9301
 9968WAT    EPW40580   0.911   3.267   7.408  0.2154 -0.3625 -0.1541
 9969WAT      O40581   3.344   1.116   4.564  0.0297 -0.1342 -0.0326
 9969WAT     H140582   3.409   1.075   4.522  0.5544  0.9386 -0.3141
 9969WAT     H240583   3.371   1.117   4.647 -0.0577 -0.4939  0.0004
 9969WAT    EPW40584   3.357   1.110   4.570  0.0362 -0.0847  0.0062
 9970WAT      O40585   5.739   2.716   3.600  0.4241  0.0951 -0.2652
 9970WAT     H140586   5.778   2.784   3.638  0.5861  0.5978 -1.2935
 9970WAT     H240587   5.792   2.697   3.533 -0.8592  0.5245 -1.4480
 9970WAT    EPW40588   5.753   2.723   3.596 -0.2121  0.3935 -0.0868
 9971WAT      O40589   2.218   3.284   1.590 -0.6812 -0.0641 -0.8817
 9971WAT     H140590   2.168   3.355   1.593 -0.6642 -0.0967  1.8997
 9971WAT     H240591   2.161   3.219   1.578 -1.1914  0.0617  0.6754
 9971WAT    EPW40592   2.202   3.285   1.588 -0.3476  0.1576 -0.0420
 9972WAT      O40593   6.368   4.838   2.761 -0.0716  0.0972  0.0092
 9972WAT     H140594   6.447   4.803   2.771 -0.2548 -0.6363 -0.9087
 9972WAT     H240595   6.379   4.894   2.695 -0.2768  0.1362  0.0075
 9972WAT    EPW40596   6.381   4.841   2.753  0.6052  0.3945  0.4372
 9973WAT      O40597   0.597   5.515   6.741 -0.2985  0.1197 -0.7172
 9973WAT     H140598   0.569   5.595   6.719 -0.2140  0.6244  0.9207
 9973WAT     H240599   0.640   5.489   6.670 -1.5799  0.9086 -1.8445
 9973WAT    EPW40600   0.599   5.523   6.727  0.1186  0.1771  0.0297
 9974WAT      O40601   4.504   3.529   5.709  0.0957 -0.1686 -0.0553
 9974WAT     H140602   4.474   3.476   5.773  0.8901  1.5518  1.8404
 9974WAT     H240603   4.445   3.518   5.645 -3.5992  1.4991  2.6760
 9974WAT    EPW40604   4.491   3.519   5.709  0.1461 -0.4857  0.2365
 9975WAT      O40605   6.608   1.884   0.387 -0.1686 -0.3539 -0.1599
 9975WAT     H140606   6.650   1.862   0.313 -0.2654  1.4508 -0.7970
 9975WAT     H240607   6.626   1.969   0.396 -1.4140 -0.1922  1.0729
 9975WAT    EPW40608   6.617   1.893   0.377 -0.0455 -0.3993  0.0419
 9976WAT      O40609   1.380   7.298   1.157 -0.1464 -0.0105 -0.4577
 9976WAT     H140610   1.454   7.251   1.153 -0.4166 -0.5004  0.0743
 9976WAT     H240611   1.335   7.259   1.221  0.4061  2.0988  1.3248
 9976WAT    EPW40612   1.385   7.285   1.166 -0.5006  0.7856 -0.5434
 9977WAT      O40613   4.420   0.422   2.855 -0.2386  0.3860 -0.1283
 9977WAT     H140614   4.463   0.407   2.929  0.7976  0.9913 -0.5684
 9977WAT     H240615   4.353   0.472   2.879  0.3903  1.0368  0.3524
 9977WAT    EPW40616   4.417   0.428   2.869 -0.0072 -0.1597 -0.0806
 9978WAT      O40617   0.149   5.018   4.065  0.0601  0.4683 -0.4109
 9978WAT     H140618   0.203   4.972   4.117  0.6317 -0.1102 -1.4989
 9978WAT     H240619   0.175   5.100   4.077  0.7071  0.2614 -0.3713
 9978WAT    EPW40620   0.161   5.023   4.075  0.3237  0.0171  0.4288
 9979WAT      O40621   0.141   1.003   3.133 -0.0535  0.4375  0.0479
 9979WAT     H140622   0.104   1.049   3.069  0.2311  1.5693  0.6744
 9979WAT     H240623   0.221   0.986   3.103  0.2909  1.4844  0.3158
 9979WAT    EPW40624   0.147   1.007   3.119  0.1662  0.1299  0.0344
 9980WAT      O40625   4.320   5.095   5.494 -0.4187  0.0762 -0.1939
 9980WAT     H140626   4.295   5.155   5.435  2.5693  0.7724 -0.9335
 9980WAT     H240627   4.329   5.141   5.567 -0.4377  0.0337 -0.1656
 9980WAT    EPW40628   4.317   5.111   5.496  0.2262  0.7434 -0.3460
 9981WAT      O40629   1.449   0.114   2.354 -0.1110  0.1557  0.5296
 9981WAT     H140630   1.424   0.118   2.271 -1.2697  1.0334  0.8952
 9981WAT     H240631   1.531   0.144   2.352  0.7590 -2.0431 -0.5824
 9981WAT    EPW40632   1.457   0.119   2.342  0.1852 -0.6580  0.0341
 9982WAT      O40633   0.619   1.791   3.795 -0.5362  0.0263 -0.1421
 9982WAT     H140634   0.652   1.714   3.822 -0.6687 -0.2605 -0.7844
 9982WAT     H240635   0.675   1.818   3.735 -0.2171  0.6932  0.4395
 9982WAT    EPW40636   0.632   1.783   3.790  0.5370 -0.2448  0.3099
 9983WAT      O40637   4.939   1.627   2.665 -0.3291  0.1249 -0.3202
 9983WAT     H140638   4.916   1.570   2.727  0.4832  0.6772  0.5096
 9983WAT     H240639   4.864   1.643   2.623 -0.8182 -0.5271  0.2833
 9983WAT    EPW40640   4.924   1.621   2.668 -0.1757 -0.4417  0.1063
 9984WAT      O40641   4.607   5.889   5.017 -0.3328  0.0760  0.3182
 9984WAT     H140642   4.627   5.872   5.100  0.8669 -1.6705 -0.2814
 9984WAT     H240643   4.544   5.832   4.999 -3.2709  2.8029  0.9624
 9984WAT    EPW40644   4.601   5.878   5.027 -0.1306 -0.6245  1.6627
 9985WAT      O40645   0.396   1.721   3.607 -0.2373  0.1667  0.5742
 9985WAT     H140646   0.463   1.736   3.660 -0.2071  2.3436  0.0207
 9985WAT     H240647   0.329   1.709   3.661  0.6587 -3.1093  1.1738
 9985WAT    EPW40648   0.396   1.721   3.623 -0.4766 -0.1025 -0.3594
 9986WAT      O40649   1.167   0.957   5.561 -0.1806 -0.3777  0.3007
 9986WAT     H140650   1.237   0.988   5.603  0.3093 -1.5054  0.3414
 9986WAT     H240651   1.103   0.964   5.619 -0.5015  2.0554 -0.2063
 9986WAT    EPW40652   1.168   0.963   5.575 -0.2380  0.2876 -0.4507
 9987WAT      O40653   3.191   3.129   5.782 -0.1220 -0.3900  0.2601
 9987WAT     H140654   3.180   3.211   5.811  2.3424  0.5811 -1.2192
 9987WAT     H240655   3.159   3.080   5.846  0.5792  1.7061  2.3534
 9987WAT    EPW40656   3.185   3.134   5.795 -0.5334 -0.4611  0.0966
 9988WAT      O40657   5.329   2.068   3.798 -0.2186  0.3614  0.2591
 9988WAT     H140658   5.360   2.101   3.872 -0.5331  1.0720  0.0801
 9988WAT     H240659   5.372   2.112   3.736  0.0044 -0.1885  0.0160
 9988WAT    EPW40660   5.340   2.079   3.799 -0.2333  0.6751 -0.1885
 9989WAT      O40661   0.743   6.301   1.093  0.3415 -0.3248  0.7656
 9989WAT     H140662   0.690   6.233   1.108 -1.1428  0.9185  1.5125
 9989WAT     H240663   0.748   6.305   1.006  1.3452 -2.0153  0.7161
 9989WAT    EPW40664   0.736   6.292   1.083  0.2158  0.2046 -0.3879
 9990WAT      O40665   1.422   2.971   3.284  0.2289 -0.1879 -0.2153
 9990WAT     H140666   1.476   2.973   3.353 -1.2246 -0.5105  0.9911
 9990WAT     H240667   1.344   2.957   3.320 -0.2170 -3.7546 -2.1189
 9990WAT    EPW40668   1.418   2.969   3.299 -0.0777 -0.3482 -0.4039
 9991WAT      O40669   2.029   1.733   4.869 -0.2894 -0.1941  1.0675
 9991WAT     H140670   2.079   1.666   4.844 -0.3132  0.6493 -1.4426
 9991WAT     H240671   2.087   1.797   4.883 -0.3795 -0.3360  2.1878
 9991WAT    EPW40672   2.045   1.732   4.868  0.2199 -0.0786  0.6968
 9992WAT      O40673   0.539   0.371   2.873  0.0552  0.0714 -0.1333
 9992WAT     H140674   0.521   0.453   2.850 -0.4327 -0.5696 -2.1990
 9992WAT     H240675   0.461   0.333   2.878  0.2454 -0.1927  1.2568
 9992WAT    EPW40676   0.525   0.377   2.871  0.3154  0.0066 -0.4409
 9993WAT      O40677   5.584   5.014   0.576  0.1843  0.0708  0.3437
 9993WAT     H140678   5.572   4.997   0.661 -0.7681 -1.5059 -0.0552
 9993WAT     H240679   5.526   5.077   0.560  0.1671  0.1810  0.8056
 9993WAT    EPW40680   5.574   5.021   0.586 -0.9464  0.2793  0.4775
 9994WAT      O40681   5.609   4.655   1.148 -0.1080 -0.4393 -0.8895
 9994WAT     H140682   5.681   4.702   1.136 -1.2834  1.3926 -1.0766
 9994WAT     H240683   5.627   4.607   1.219  0.7643  1.0403 -0.0779
 9994WAT    EPW40684   5.622   4.655   1.156 -0.3130  0.2589  0.0095
 9995WAT      O40685   3.238   3.226   6.789 -0.4739 -0.0993  0.5275
 9995WAT     H140686   3.278   3.301   6.807 -0.5597  0.1214 -0.1765
 9995WAT     H240687   3.198   3.206   6.864 -0.6467  0.6803  0.6552
 9995WAT    EPW40688   3.238   3.234   6.803  0.2777  0.0351  0.6618
 9996WAT      O40689   0.442   5.308   1.214 -0.1454 -0.0023  0.4912
 9996WAT     H140690   0.489   5.355   1.157 -1.2912  0.3549 -0.1913
 9996WAT     H240691   0.472   5.335   1.292 -0.0337  1.0952  0.0914
 9996WAT    EPW40692   0.453   5.319   1.217 -0.3610  0.3005  0.0724
 9997WAT      O40693   5.427   4.186   1.534  0.2533 -0.6287 -0.4732
 9997WAT     H140694   5.398   4.109   1.503 -2.1856 -1.1919  2.7714
 9997WAT     H240695   5.416   4.179   1.620  2.0365  2.5974  0.1495
 9997WAT    EPW40696   5.421   4.173   1.542  0.4912 -0.4794 -0.3735
 9998WAT      O40697   4.051   5.816   5.102  0.2380 -0.0173 -0.1969
 9998WAT     H140698   4.113   5.832   5.161  0.8604 -0.3626 -0.7472
 9998WAT     H240699   4.044   5.891   5.058 -0.8825  0.5459  0.8923
 9998WAT    EPW40700   4.059   5.830   5.104 -0.0302  0.2202 -0.1092
 9999WAT      O40701   4.473   4.432   0.929  0.0389 -0.1799  0.3841
 9999WAT     H140702   4.506   4.443   0.849  1.8941  0.7416  1.2102
 9999WAT     H240703   4.468   4.346   0.938  1.3021 -0.3396 -0.1845
 9999WAT    EPW40704   4.477   4.421   0.919  0.0276 -0.0647 -0.2482
10000WAT      O40705   0.557   2.996   6.397 -0.1023  0.0535 -0.2487
10000WAT     H140706   0.570   3.023   6.315 -0.8551  0.1740 -0.3332
10000WAT     H240707   0.472   2.978   6.399 -0.0401 -0.1769  0.4440
10000WAT    EPW40708   0.547   2.997   6.385 -0.1913 -0.5885 -0.2686
10001WAT      O40709   2.143   6.970   0.674  0.3495 -0.4942 -0.6248
10001WAT     H140710   2.174   6.958   0.593 -0.0297  0.6647 -0.9591
10001WAT     H240711   2.057   6.957   0.665  0.5121 -2.3963  0.0353
10001WAT    EPW40712   2.134   6.966   0.661  0.9236  0.6488 -0.4890
10002WAT      O40713   3.888   6.111   1.132  0.8506  0.6340  0.1434
10002WAT     H140714   3.903   6.077   1.211 -0.7843  0.6943  0.5256
10002WAT     H240715   3.802   6.128   1.133  1.3358  3.7714 -0.3977
10002WAT    EPW40716   3.877   6.108   1.144 -0.2909 -0.2229  0.2288
10003WAT      O40717   1.497   2.075   7.239 -0.0292 -0.0431 -0.4504
10003WAT     H140718   1.446   2.018   7.196  0.6518 -0.1745 -1.0993
10003WAT     H240719   1.467   2.071   7.321  0.3593 -1.7719 -0.3599
10003WAT    EPW40720   1.485   2.066   7.245 -0.1969 -0.1003  0.1758
10004WAT      O40721   3.217   3.010   5.528 -0.2137  0.1158 -0.3096
10004WAT     H140722   3.202   3.069   5.590 -2.7192 -1.5909  0.8975
10004WAT     H240723   3.294   2.974   5.551 -0.5785  0.2588  1.2097
10004WAT    EPW40724   3.226   3.013   5.541 -0.7884 -0.2659  0.4707
10005WAT      O40725   0.059   0.587   0.385  0.0846 -0.5371  0.1226
10005WAT     H140726   0.144   0.588   0.403  0.1672  1.8550 -0.1698
10005WAT     H240727   0.032   0.512   0.422  2.4630 -1.9516 -0.7534
10005WAT    EPW40728   0.067   0.576   0.393 -0.6896  0.2811  1.0922
10006WAT      O40729   3.409   1.133   4.843 -0.2182  0.1364  0.1174
10006WAT     H140730   3.359   1.106   4.909 -0.6292  0.7306  0.0587
10006WAT     H240731   3.392   1.218   4.838  1.4773  0.5395  0.6633
10006WAT    EPW40732   3.399   1.141   4.852 -0.4920 -0.0119 -0.7492
10007WAT      O40733   0.819   5.164   3.627  0.9640 -0.7754 -0.3063
10007WAT     H140734   0.773   5.237   3.636  0.1366 -1.3754  0.5023
10007WAT     H240735   0.761   5.101   3.641  2.3819 -1.5686  2.8516
10007WAT    EPW40736   0.804   5.165   3.630 -0.1640  0.2635 -0.8240
10008WAT      O40737   0.373   3.101   7.082  0.5920  0.4279 -0.2993
10008WAT     H140738   0.288   3.080   7.080  0.3733  1.0431  1.0690
10008WAT     H240739   0.372   3.185   7.107  1.6106  0.3918 -0.1016
10008WAT    EPW40740   0.360   3.110   7.085 -0.9396  0.1305  0.3937
10009WAT      O40741   5.886   3.990   6.640  0.1534  0.0941  0.2306
10009WAT     H140742   5.840   4.056   6.604 -0.4650 -1.0259 -1.1067
10009WAT     H240743   5.834   3.963   6.705 -0.3760 -0.1506 -0.2821
10009WAT    EPW40744   5.871   3.996   6.645 -0.1903 -0.3869  0.0013
10010WAT      O40745   5.237   7.065   0.115  0.6803  0.4040  0.5897
10010WAT     H140746   5.189   7.063   0.042 -1.3820  1.7410  1.7870
10010WAT     H240747   5.229   6.984   0.147 -0.9340  0.5887  0.7746
10010WAT    EPW40748   5.229   7.053   0.109  0.3760  0.8606  0.3724
10011WAT      O40749   5.020   6.741   4.951 -0.3063 -0.5271  0.2455
10011WAT     H140750   5.099   6.772   4.932 -0.7442  0.4588 -0.0401
10011WAT     H240751   4.966   6.801   4.919 -1.2167 -1.7592 -0.6011
10011WAT    EPW40752   5.023   6.755   4.944  0.2151 -0.4821 -0.6552
10012WAT      O40753   3.795   5.762   5.449 -0.2739  0.4336 -0.0108
10012WAT     H140754   3.782   5.798   5.370  1.7453 -0.2134 -0.7018
10012WAT     H240755   3.839   5.824   5.492 -1.4312  0.8113  0.6862
10012WAT    EPW40756   3.800   5.777   5.443 -0.2510  0.0920 -0.1136
10013WAT      O40757   0.563   5.544   2.354  0.4090 -0.0187  0.2978
10013WAT     H140758   0.628   5.574   2.404 -0.9143  1.5972  1.1431
10013WAT     H240759   0.533   5.615   2.314  0.3510 -1.0308 -1.5799
10013WAT    EPW40760   0.568   5.559   2.356 -0.0287 -0.2185 -0.1430
10014WAT      O40761   0.420   4.471   0.135 -0.3442 -0.1852  0.3182
10014WAT     H140762   0.393   4.421   0.068 -0.0471  0.7615 -0.5316
10014WAT     H240763   0.353   4.526   0.147 -0.0068  0.2564  0.1703
10014WAT    EPW40764   0.406   4.472   0.127 -0.5844 -0.6447  0.3981
10015WAT      O40765   7.152   0.999   2.851 -0.1784  0.1807  0.4704
10015WAT     H140766   7.100   1.026   2.786  0.8503 -1.3883 -1.0903
10015WAT     H240767   7.097   0.955   2.904 -1.1530  2.0390  1.1235
10015WAT    EPW40768   7.136   0.996   2.850 -0.0037 -0.3111 -0.5497
10016WAT      O40769   4.186   4.136   7.424 -0.0619 -0.4007  0.1326
10016WAT     H140770   4.129   4.185   7.379 -0.7475  0.3308  1.7230
10016WAT     H240771   4.135   4.087   7.475  0.6786 -1.7056 -0.3273
10016WAT    EPW40772   4.170   4.136   7.425 -0.5253  0.3648  0.2474
10017WAT      O40773   0.963   4.319   2.271 -0.1094 -0.2891  0.3719
10017WAT     H140774   0.956   4.347   2.189  0.4911 -1.5900 -0.1464
10017WAT     H240775   0.931   4.386   2.318  0.1794  0.7558 -0.8576
10017WAT    EPW40776   0.957   4.333   2.266 -0.0149  0.2168 -0.2134
10018WAT      O40777   1.068   1.501   4.727  0.0658  0.1150  0.5127
10018WAT     H140778   1.015   1.443   4.690 -0.0722  0.1122  0.7128
10018WAT     H240779   1.116   1.531   4.660 -0.7067  0.6716  0.2019
10018WAT    EPW40780   1.067   1.497   4.712  0.4410  0.3373 -0.1668
10019WAT      O40781   0.398   4.808   6.004  0.0891 -0.5917 -0.0958
10019WAT     H140782   0.321   4.767   6.010  0.1253 -0.4930  1.2991
10019WAT     H240783   0.386   4.862   5.937 -0.5797 -1.5547 -0.7972
10019WAT    EPW40784   0.385   4.810   5.995 -0.4167 -0.4183 -0.8917
10020WAT      O40785   0.842   2.803   5.574  0.0991 -0.4823  0.2809
10020WAT     H140786   0.865   2.840   5.650  0.5133 -0.3965  0.1195
10020WAT     H240787   0.881   2.853   5.515 -0.8270 -0.1117 -0.0285
10020WAT    EPW40788   0.851   2.816   5.577  0.7457  0.4548  0.1368
10021WAT      O40789   1.112   6.905   2.184 -0.2658 -0.3589  0.2806
10021WAT     H140790   1.135   6.836   2.232  0.2596 -0.1163  0.3809
10021WAT     H240791   1.183   6.955   2.184 -0.5134  0.0006 -0.1218
10021WAT    EPW40792   1.126   6.902   2.191  0.0788 -0.5006 -0.3250
10022WAT      O40793   3.363   0.516   4.909  0.1579 -0.1231  0.2519
10022WAT     H140794   3.371   0.510   4.995 -1.7980 -1.0023  0.4279
10022WAT     H240795   3.282   0.546   4.898  1.1392  2.3047 -1.2717
10022WAT    EPW40796   3.352   0.519   4.920 -0.1201  0.4123 -0.2738
10023WAT      O40797   4.870   2.269   6.699 -0.2431  0.3565  0.0184
10023WAT     H140798   4.949   2.269   6.662 -0.7844  0.4230 -1.1843
10023WAT     H240799   4.836   2.193   6.674  0.1021 -0.5476  2.0876
10023WAT    EPW40800   4.877   2.257   6.689  0.2981  0.1587 -0.1120
10024WAT      O40801   3.508   5.188   2.756  0.5391 -0.1707  0.1766
10024WAT     H140802   3.456   5.230   2.700  0.2322 -0.5425  0.1806
10024WAT     H240803   3.586   5.191   2.717  0.5859  0.6522  0.3120
10024WAT    EPW40804   3.512   5.195   2.742  0.3695 -0.3191  0.8152
10025WAT      O40805   0.612   7.167   5.276 -0.0244 -0.5218  0.0025
10025WAT     H140806   0.648   7.202   5.347  0.7543 -1.1395 -0.0778
10025WAT     H240807   0.527   7.183   5.286  0.3153  1.5990 -0.1576
10025WAT    EPW40808   0.605   7.174   5.288 -0.3359  0.3749 -0.3160
10026WAT      O40809   5.446   5.592   0.114 -0.6192 -0.1992 -0.4828
10026WAT     H140810   5.389   5.612   0.177 -0.3110 -0.3018 -0.1666
10026WAT     H240811   5.421   5.642   0.047 -0.8705  0.0061 -0.2384
10026WAT    EPW40812   5.434   5.602   0.113 -0.3019 -0.7704  0.3233
10027WAT      O40813   3.545   3.607   2.321  0.3710  0.0419  0.0556
10027WAT     H140814   3.582   3.580   2.395  0.3755  0.5392  0.2392
10027WAT     H240815   3.613   3.620   2.268  0.2724 -2.1564 -0.6903
10027WAT    EPW40816   3.561   3.605   2.324  0.4603  0.0476  0.4574
10028WAT      O40817   2.649   5.991   2.062  0.1436 -0.0054 -0.1926
10028WAT     H140818   2.674   6.037   2.132 -0.2435  0.7951 -0.5781
10028WAT     H240819   2.708   6.010   2.002  0.2350 -0.3686 -0.2234
10028WAT    EPW40820   2.661   6.000   2.064  0.1238 -0.5505  0.7471
10029WAT      O40821   2.931   2.420   6.508 -0.4426  0.1506 -0.3155
10029WAT     H140822   2.897   2.344   6.533  0.1259 -0.8215 -2.3096
10029WAT     H240823   3.002   2.428   6.558 -1.7929  0.6395  1.6361
10029WAT    EPW40824   2.937   2.410   6.519  0.7931 -0.3008 -0.0858
10030WAT      O40825   0.487   6.745   6.103  0.7024  0.3688  0.1048
10030WAT     H140826   0.402   6.759   6.118  0.5672  0.5011 -0.7443
10030WAT     H240827   0.487   6.677   6.049  1.0662  1.0879 -0.8399
10030WAT    EPW40828   0.474   6.737   6.097  0.1362  0.0824  0.2302
10031WAT      O40829   4.038   2.932   5.109 -0.1726  0.0169 -0.2574
10031WAT     H140830   4.114   2.974   5.101 -0.6282  0.7621 -0.9575
10031WAT     H240831   3.987   2.989   5.151 -0.2580 -0.6017  0.4924
10031WAT    EPW40832   4.042   2.947   5.114  0.1858  0.0992  0.0640
10032WAT      O40833   7.132   2.185   4.233 -0.6447 -0.1205 -0.9372
10032WAT     H140834   7.162   2.112   4.197 -1.4216 -0.5770 -0.6796
10032WAT     H240835   7.098   2.230   4.166  0.1705  0.1928 -1.1563
10032WAT    EPW40836   7.131   2.181   4.218 -0.0317 -0.0852  0.2625
10033WAT      O40837   1.694   1.903   0.429 -0.0998 -0.2817  0.3017
10033WAT     H140838   1.733   1.858   0.492  0.0791 -0.6172 -0.0466
10033WAT     H240839   1.718   1.986   0.444 -0.0660 -0.3590  0.6735
10033WAT    EPW40840   1.703   1.909   0.440  0.0908  0.5274 -0.3570
10034WAT      O40841   4.118   6.140   5.250  0.5689 -0.0837 -0.0813
10034WAT     H140842   4.177   6.203   5.235  0.4764 -0.1757 -0.8929
10034WAT     H240843   4.088   6.121   5.170 -0.1400 -0.4474  0.2604
10034WAT    EPW40844   4.122   6.147   5.236 -0.1013  0.3216  0.2508
10035WAT      O40845   4.507   5.514   0.885 -0.4820  0.2385  0.4793
10035WAT     H140846   4.540   5.579   0.934 -0.2345 -1.1123  2.1950
10035WAT     H240847   4.421   5.531   0.885 -0.3817  0.7674  0.6287
10035WAT    EPW40848   4.499   5.526   0.893 -0.6438  0.1852 -0.2507
10036WAT      O40849   4.311   2.942   4.783  0.3027  0.3356 -0.5952
10036WAT     H140850   4.283   2.870   4.743  1.8401 -0.0587 -1.0352
10036WAT     H240851   4.363   2.979   4.723  0.6113  1.0899  0.1233
10036WAT    EPW40852   4.315   2.937   4.768  0.4846 -0.6027 -0.4632
10037WAT      O40853   2.395   6.043   5.149  0.2518  1.0602  0.0262
10037WAT     H140854   2.440   5.976   5.116 -0.2311  1.3702 -1.3605
10037WAT     H240855   2.399   6.031   5.235 -0.1297 -0.9711 -0.1836
10037WAT    EPW40856   2.402   6.031   5.157  0.3442 -0.2900  0.1693
10038WAT      O40857   3.924   4.418   6.860 -0.2416  1.0703 -0.3853
10038WAT     H140858   4.005   4.417   6.827  0.6137  1.0674  1.5379
10038WAT     H240859   3.935   4.457   6.938 -1.0048 -3.3233  2.3102
10038WAT    EPW40860   3.938   4.424   6.867  0.2872 -0.0043 -0.3184
10039WAT      O40861   5.553   6.519   4.091  0.2397  0.0139  0.5300
10039WAT     H140862   5.573   6.596   4.055 -0.0341 -0.9506 -1.8962
10039WAT     H240863   5.626   6.496   4.133  0.9650  0.7755 -0.2647
10039WAT    EPW40864   5.567   6.527   4.092  0.2300  0.1305 -0.0864
10040WAT      O40865   2.015   5.873   3.678  0.2364  0.3986  0.4811
10040WAT     H140866   1.988   5.950   3.709  0.2147  1.9274 -2.8998
10040WAT     H240867   2.095   5.891   3.647  0.9344 -1.4247  1.1001
10040WAT    EPW40868   2.023   5.887   3.678 -0.1810  0.2870  1.1366
10041WAT      O40869   2.423   4.438   0.277 -0.5194  0.2124  0.4674
10041WAT     H140870   2.429   4.431   0.364 -1.6472  0.3496  0.5775
10041WAT     H240871   2.394   4.360   0.252 -0.8338  0.3823  0.2921
10041WAT    EPW40872   2.419   4.426   0.286 -0.3573 -0.3302 -0.3549
10042WAT      O40873   5.174   3.693   6.314 -0.1051  0.5624  0.4364
10042WAT     H140874   5.256   3.706   6.340 -0.3853  1.8507  0.7260
10042WAT     H240875   5.155   3.764   6.268 -0.4227 -0.6085 -1.3589
10042WAT    EPW40876   5.184   3.705   6.311 -0.3233  0.3745  0.3355
10043WAT      O40877   5.347   4.242   7.423 -0.0335  0.0931 -0.1146
10043WAT     H140878   5.413   4.203   7.382 -0.3355 -0.5103 -0.0318
10043WAT     H240879   5.335   4.194   7.495  0.0475  0.7472  0.3453
10043WAT    EPW40880   5.355   4.229   7.427 -0.3363 -0.1429  0.4885
10044WAT      O40881   4.466   5.178   2.433 -0.2278  0.2180 -0.6673
10044WAT     H140882   4.543   5.150   2.402  1.2147  1.1509  1.7432
10044WAT     H240883   4.465   5.263   2.414 -0.6815  0.2050 -0.7114
10044WAT    EPW40884   4.477   5.186   2.426  0.2617 -0.0296  0.0481
10045WAT      O40885   0.104   0.578   2.387 -0.2375  0.3028  0.3703
10045WAT     H140886   0.190   0.589   2.394 -0.1634  0.8492 -1.0633
10045WAT     H240887   0.089   0.584   2.301 -1.5459 -1.0410  0.4497
10045WAT    EPW40888   0.114   0.580   2.375 -0.5467  0.3402 -0.2585
10046WAT      O40889   2.412   1.895   5.063 -0.5406  0.0830 -0.2332
10046WAT     H140890   2.480   1.944   5.038  0.9161 -2.0996 -0.9068
10046WAT     H240891   2.406   1.910   5.148  0.3954  0.8201 -0.2784
10046WAT    EPW40892   2.421   1.904   5.072  0.3126  0.1746 -0.2407
10047WAT      O40893   1.697   3.975   5.567 -0.7899 -0.0353 -0.4088
10047WAT     H140894   1.711   4.029   5.634 -1.0088 -0.5567  0.0694
10047WAT     H240895   1.692   3.896   5.605 -1.7600 -0.2414 -0.9190
10047WAT    EPW40896   1.698   3.971   5.583  0.2220  0.2758  0.0397
10048WAT      O40897   4.754   2.688   5.172 -0.2855 -0.2062 -0.1049
10048WAT     H140898   4.682   2.701   5.219  0.5232 -0.1525  1.1544
10048WAT     H240899   4.772   2.604   5.185  0.5496  0.0672  0.5980
10048WAT    EPW40900   4.746   2.678   5.181  0.4449 -0.4068 -0.3596
10049WAT      O40901   2.728   5.289   0.264 -0.5428  0.5006  0.7653
10049WAT     H140902   2.762   5.332   0.197 -2.1001 -0.0631 -0.4493
10049WAT     H240903   2.649   5.326   0.274 -0.5434  0.2217  1.9538
10049WAT    EPW40904   2.721   5.301   0.256  0.4520 -0.1102  0.5457
10050WAT      O40905   0.197   7.471   2.695 -0.2729 -0.4977 -0.1751
10050WAT     H140906   0.162   7.401   2.735 -0.2101 -1.1927 -1.2733
10050WAT     H240907   0.269   7.439   2.657  0.6622  0.5492  0.6542
10050WAT    EPW40908   0.202   7.456   2.695  0.5282  0.3631  0.0405
10051WAT      O40909   3.175   4.877   1.812  0.0402 -0.2886  0.1804
10051WAT     H140910   3.176   4.803   1.766 -0.5059 -1.3022  1.7052
10051WAT     H240911   3.257   4.906   1.807  0.7711 -2.0565  1.1275
10051WAT    EPW40912   3.187   4.871   1.805  0.3193  0.0153  0.7103
10052WAT      O40913   4.185   7.494   2.478 -0.2010  0.2079  0.1195
10052WAT     H140914   4.264   7.527   2.460 -1.1011  2.8634  0.5428
10052WAT     H240915   4.168   7.525   2.558 -1.2007 -1.3294  0.5410
10052WAT    EPW40916   4.194   7.504   2.487 -0.0842  0.1356 -0.5037
10053WAT      O40917   5.292   7.026   4.689 -0.3002 -0.1819  0.8944
10053WAT     H140918   5.215   6.988   4.675 -0.5525  0.3153  0.9091
10053WAT     H240919   5.350   6.965   4.665 -0.6728 -1.0402  2.0947
10053WAT    EPW40920   5.290   7.011   4.683  0.1067  0.4114  0.1041
10054WAT      O40921   5.781   0.996   0.525 -0.2328 -0.4270  0.0377
10054WAT     H140922   5.760   1.045   0.593 -0.4458 -0.7050  0.1780
10054WAT     H240923   5.799   1.053   0.462  0.2908 -0.1657  0.4199
10054WAT    EPW40924   5.781   1.011   0.525 -0.4650 -0.0200  0.2039
10055WAT      O40925   1.389   4.657   1.706 -0.2517 -0.2088  0.7946
10055WAT     H140926   1.413   4.575   1.724 -1.0814 -0.4304  0.9446
10055WAT     H240927   1.449   4.706   1.745  0.6871 -0.7507  0.0717
10055WAT    EPW40928   1.401   4.652   1.714  0.8047 -0.0738 -0.7952
10056WAT      O40929   3.055   0.955   3.169 -0.1682 -0.2540  0.1769
10056WAT     H140930   3.055   1.035   3.135  1.7155 -0.0826  0.4846
10056WAT     H240931   2.979   0.921   3.143 -0.4984  1.2392 -0.8820
10056WAT    EPW40932   3.044   0.961   3.161  0.1011 -0.2654  0.2163
10057WAT      O40933   5.612   5.945   4.074 -0.8176 -0.4517 -0.0938
10057WAT     H140934   5.573   5.907   4.006 -1.7364  0.6593 -0.2190
10057WAT     H240935   5.575   6.024   4.077 -0.8506 -0.5012  1.7392
10057WAT    EPW40936   5.600   5.951   4.064 -0.3641  0.0862 -0.1060
10058WAT      O40937   4.183   3.336   1.524  0.0071 -0.4245 -0.2737
10058WAT     H140938   4.240   3.328   1.589 -0.4972 -0.1102  0.2139
10058WAT     H240939   4.232   3.363   1.457  0.8725 -2.5383 -0.5822
10058WAT    EPW40940   4.198   3.339   1.524 -0.1811  0.0541  0.3021
10059WAT      O40941   1.437   2.276   5.769 -0.3356 -0.4133  0.5236
10059WAT     H140942   1.396   2.351   5.751 -1.4070 -1.4179 -1.7302
10059WAT     H240943   1.502   2.300   5.823 -0.7952  2.0712  0.1027
10059WAT    EPW40944   1.441   2.290   5.774 -1.0006  0.3085 -0.0880
10060WAT      O40945   5.406   5.887   5.051 -0.2495 -0.2617 -0.2611
10060WAT     H140946   5.345   5.925   5.002 -0.8288 -2.1405 -1.0901
10060WAT     H240947   5.452   5.840   4.994  1.2990  0.2494  0.5196
10060WAT    EPW40948   5.403   5.885   5.035  0.0790  0.7256  0.1030
10061WAT      O40949   0.650   6.516   3.220  0.1858  0.2203 -0.1766
10061WAT     H140950   0.608   6.444   3.246  0.6815  0.4417  1.3571
10061WAT     H240951   0.729   6.487   3.196 -0.5894 -0.1253 -2.5721
10061WAT    EPW40952   0.655   6.501   3.221 -0.2602 -0.1580  0.0993
10062WAT      O40953   7.571   5.811   2.402  0.4086  0.4077  0.1301
10062WAT     H140954   7.624   5.841   2.340  0.2405 -0.4785 -0.4631
10062WAT     H240955   7.599   5.730   2.415 -0.7652 -0.0697 -0.1835
10062WAT    EPW40956   7.583   5.804   2.394  0.4682 -0.1516  0.0140
10063WAT      O40957   2.802   3.220   4.142  0.5927  0.5280  0.5030
10063WAT     H140958   2.864   3.160   4.127  2.3345  1.9886  1.5920
10063WAT     H240959   2.839   3.295   4.118 -2.5203  1.1136 -3.7222
10063WAT    EPW40960   2.816   3.222   4.136 -0.4383 -0.3766  0.1492
10064WAT      O40961   3.940   5.647   2.496 -0.3454  0.4164 -0.0164
10064WAT     H140962   3.869   5.677   2.456 -2.4434 -1.8735  1.7072
10064WAT     H240963   3.935   5.561   2.485  0.5560 -0.0488  2.5919
10064WAT    EPW40964   3.929   5.639   2.489 -0.2978 -0.6817 -0.2446
10065WAT      O40965   5.649   6.311   2.749 -0.2002  0.2813  0.5192
10065WAT     H140966   5.612   6.236   2.774 -2.2954  0.9965 -0.1428
10065WAT     H240967   5.700   6.333   2.816 -1.1628 -0.7111  1.6328
10065WAT    EPW40968   5.651   6.303   2.762 -0.1297  0.5623  0.5096
10066WAT      O40969   1.668   4.302   3.104 -0.0220  0.1950 -0.4239
10066WAT     H140970   1.612   4.369   3.101 -0.7066 -0.3977 -1.4005
10066WAT     H240971   1.715   4.318   3.176 -0.0630  1.7969 -0.7178
10066WAT    EPW40972   1.666   4.314   3.114 -0.4629 -0.0400 -0.0113
10067WAT      O40973   6.315   6.936   2.981 -0.1860 -0.0969  0.8428
10067WAT     H140974   6.295   6.975   2.905 -0.1816 -0.6905  0.5296
10067WAT     H240975   6.402   6.931   2.978  0.0246  1.9637  1.9449
10067WAT    EPW40976   6.325   6.941   2.969  0.4629  0.8192 -0.2758
10068WAT      O40977   6.839   4.669   6.720 -0.0070  0.1822 -0.3141
10068WAT     H140978   6.815   4.641   6.799  0.2485  0.4962 -0.1224
10068WAT     H240979   6.898   4.610   6.694 -0.6411 -0.3364 -0.5920
10068WAT    EPW40980   6.845   4.656   6.728 -0.2637  0.5797  0.1656
10069WAT      O40981   1.160   4.705   1.546  0.1428  0.4352 -0.2138
10069WAT     H140982   1.143   4.791   1.541 -0.7546  0.2411 -0.8873
10069WAT     H240983   1.232   4.701   1.595 -0.7313  1.4673  1.2302
10069WAT    EPW40984   1.168   4.717   1.552  0.5960  0.1006 -0.0449
10070WAT      O40985   5.996   2.013   0.747  0.2660  0.0186 -0.0711
10070WAT     H140986   6.076   2.029   0.717  0.0824 -0.7609 -1.0263
10070WAT     H240987   5.999   1.928   0.770 -0.6291 -0.3993 -1.3612
10070WAT    EPW40988   6.008   2.003   0.746 -0.2545  0.1128 -0.2723
10071WAT      O40989   6.849   1.167   7.543  0.5582 -0.3483  0.7052
10071WAT     H140990   6.820   1.206   7.471  0.6945 -1.6324 -0.0908
10071WAT     H240991   6.780   1.165   7.595  0.2189 -0.1291  0.2715
10071WAT    EPW40992   6.835   1.172   7.540  0.6911  0.1097 -0.3507
10072WAT      O40993   0.512   1.079   3.672 -0.3457  0.7158  0.2601
10072WAT     H140994   0.441   1.044   3.708  0.7211 -0.1349  1.6254
10072WAT     H240995   0.553   1.011   3.636  0.6212  0.8805  0.9887
10072WAT    EPW40996   0.508   1.064   3.672  0.0669 -0.2579 -0.5276
10073WAT      O40997   7.322   4.930   5.823 -0.6149 -0.1463 -0.2944
10073WAT     H140998   7.353   4.971   5.753  1.3381 -1.5326 -0.3248
10073WAT     H240999   7.318   4.847   5.797  0.8934 -0.8216  1.4154
10073WAT    EPW41000   7.326   4.924   5.809 -0.3685 -0.0851  0.0801
10074WAT      O41001   4.091   0.398   4.491  0.1992  0.2657  0.5342
10074WAT     H141002   4.098   0.479   4.461 -1.3314  0.4189  0.4936
10074WAT     H241003   4.174   0.371   4.500  0.7452  2.0405  1.1488
10074WAT    EPW41004   4.104   0.406   4.488  0.5365 -0.0879 -0.3440
10075WAT      O41005   1.503   3.171   1.953  0.2141  0.0155 -0.3285
10075WAT     H141006   1.447   3.117   1.993  0.5149 -0.1925 -0.1798
10075WAT     H241007   1.540   3.119   1.893  1.2046 -0.2091  0.4573
10075WAT    EPW41008   1.500   3.155   1.950 -0.4697  0.1257  0.4371
10076WAT      O41009   3.314   7.195   6.059  0.0281  0.1514  0.1161
10076WAT     H141010   3.372   7.246   6.099 -1.1255  1.6987 -0.1090
10076WAT     H241011   3.362   7.149   6.003  1.1763  0.5482  0.7481
10076WAT    EPW41012   3.330   7.196   6.057  0.4439  0.1668 -0.4293
10077WAT      O41013   6.778   1.764   2.274  0.1762  0.0571  0.4215
10077WAT     H141014   6.741   1.694   2.237 -2.6419  1.2085  0.7948
10077WAT     H241015   6.814   1.807   2.206 -1.4736  0.1504 -0.4486
10077WAT    EPW41016   6.778   1.760   2.258  0.6071  0.1943  0.0517
10078WAT      O41017   0.903   0.987   4.509  0.5470  0.7574  0.2745
10078WAT     H141018   0.900   1.043   4.576  0.4412  1.2801 -0.1572
10078WAT     H241019   0.834   1.009   4.460  0.7001  0.4752 -0.0796
10078WAT    EPW41020   0.892   0.998   4.511 -0.7171 -0.3734  0.1092
10079WAT      O41021   4.022   6.854   0.276 -0.1782 -0.5419  0.6103
10079WAT     H141022   4.037   6.861   0.362 -1.3044 -0.9972  0.8471
10079WAT     H241023   4.053   6.930   0.245 -1.5532  0.5137  1.6765
10079WAT    EPW41024   4.029   6.866   0.284 -0.3174 -0.0611  0.0656
10080WAT      O41025   0.245   5.671   5.942 -0.4608  0.1749 -0.4365
10080WAT     H141026   0.264   5.746   5.902  0.4437  0.8096  1.0909
10080WAT     H241027   0.207   5.697   6.017  1.2638 -0.7814  0.8457
10080WAT    EPW41028   0.242   5.686   5.947  0.3716  0.2507 -0.5074
10081WAT      O41029   2.485   5.023   4.036 -0.6207  0.6845  1.0034
10081WAT     H141030   2.542   4.987   3.981 -2.2548 -1.2652  0.4769
10081WAT     H241031   2.531   5.034   4.109  0.9269  1.0025  0.0231
10081WAT    EPW41032   2.500   5.019   4.039  0.1493 -0.6637 -0.1572
10082WAT      O41033   1.134   2.723   3.576 -0.1290  0.3534  0.5274
10082WAT     H141034   1.167   2.642   3.575  0.4369  0.5709  1.0376
10082WAT     H241035   1.054   2.712   3.545 -0.3065 -0.5164  1.2420
10082WAT    EPW41036   1.127   2.709   3.571  0.1473  0.7426 -0.7014
10083WAT      O41037   5.962   1.613   1.231 -0.0583  0.5186  0.2507
10083WAT     H141038   5.960   1.580   1.312 -0.0257  2.4594  1.0856
10083WAT     H241039   5.880   1.642   1.219 -0.1705 -0.1113 -0.5893
10083WAT    EPW41040   5.949   1.612   1.241  0.2940 -0.4296 -0.0836
10084WAT      O41041   7.582   6.071   5.182 -0.2665  0.2447  0.3665
10084WAT     H141042   7.649   6.125   5.194  0.0600 -0.1389  0.3012
10084WAT     H241043   7.593   6.011   5.244 -0.1538 -0.1993 -0.0768
10084WAT    EPW41044   7.594   6.070   5.193 -0.2925  0.0060 -0.7845
10085WAT      O41045   6.696   5.346   2.695  0.2558 -0.3617 -0.2045
10085WAT     H141046   6.772   5.379   2.721  0.9371 -0.2215 -2.1594
10085WAT     H241047   6.643   5.415   2.693  0.3271 -0.2894  0.2631
10085WAT    EPW41048   6.699   5.361   2.698  0.1987 -0.5287  0.3963
10086WAT      O41049   3.527   3.099   6.260 -0.4863 -0.7677 -0.0195
10086WAT     H141050   3.443   3.090   6.238 -0.3696 -0.0675 -0.8113
10086WAT     H241051   3.529   3.174   6.305 -0.2296 -0.5376 -0.4005
10086WAT    EPW41052   3.515   3.109   6.263  0.7011  0.0804  0.7258
10087WAT      O41053   7.367   0.052   6.953  0.3231 -0.3576  0.3026
10087WAT     H141054   7.447   0.084   6.971  1.8959 -2.3263 -2.3250
10087WAT     H241055   7.335   0.110   6.896 -0.4234  0.6975  1.7316
10087WAT    EPW41056   7.374   0.065   6.947 -0.3916 -0.3228 -0.0514
10088WAT      O41057   1.847   5.531   1.374  0.1248  0.1758 -0.4786
10088WAT     H141058   1.842   5.598   1.319 -1.0047 -0.2316 -0.9137
10088WAT     H241059   1.912   5.552   1.428  0.4770  1.1212 -1.2543
10088WAT    EPW41060   1.856   5.544   1.374  0.5472 -0.1113 -0.1269
10089WAT      O41061   2.664   7.112   5.584  0.6679 -0.1265 -0.0973
10089WAT     H141062   2.696   7.037   5.615 -0.5707 -0.0256  1.5063
10089WAT     H241063   2.679   7.169   5.648  0.0791  0.6217 -0.6096
10089WAT    EPW41064   2.671   7.109   5.598 -0.2445 -0.0547  0.2751
10090WAT      O41065   0.793   3.805   3.898  0.4114  0.0768 -0.1167
10090WAT     H141066   0.829   3.850   3.963 -1.2152 -0.2511  1.0761
10090WAT     H241067   0.789   3.723   3.929 -2.1566  0.2439  0.2603
10090WAT    EPW41068   0.798   3.799   3.912 -0.4192 -0.1937 -0.1730
10091WAT      O41069   5.160   4.923   7.158  0.0319 -0.2994  0.2008
10091WAT     H141070   5.159   4.848   7.203  0.3125 -0.0049  0.7141
10091WAT     H241071   5.235   4.919   7.114  0.0526 -0.3177  0.2375
10091WAT    EPW41072   5.171   4.911   7.158 -0.3451  0.8991 -0.3056
10092WAT      O41073   0.818   1.772   7.542  0.3389  0.0171 -0.5618
10092WAT     H141074   0.876   1.739   7.486 -0.4050 -0.0260 -1.3267
10092WAT     H241075   0.819   1.857   7.525 -0.5985 -0.1098 -1.3546
10092WAT    EPW41076   0.826   1.780   7.531 -0.7750 -0.0910 -0.0915
10093WAT      O41077   4.653   4.850   5.135  0.3604 -0.5248 -0.5140
10093WAT     H141078   4.710   4.786   5.154  0.2574 -0.5535 -0.2931
10093WAT     H241079   4.625   4.875   5.213  1.8088  1.1117 -0.4651
10093WAT    EPW41080   4.658   4.844   5.149  0.4705 -0.2020  0.2160
10094WAT      O41081   3.375   7.455   1.895 -0.9571 -0.3578  0.4708
10094WAT     H141082   3.308   7.415   1.934 -1.6156 -0.0913 -0.3493
10094WAT     H241083   3.339   7.486   1.821  0.0619 -0.1862  0.0380
10094WAT    EPW41084   3.360   7.453   1.890  0.6944  0.3409 -0.1445
10095WAT      O41085   6.353   4.143   7.350 -0.1492  0.0389 -0.3516
10095WAT     H141086   6.335   4.058   7.357  0.3629 -0.0211  0.3673
10095WAT     H241087   6.364   4.154   7.264  1.6696 -1.0514 -0.3158
10095WAT    EPW41088   6.352   4.132   7.339  0.1278  0.4962  0.0654
10096WAT      O41089   3.181   1.684   1.454 -0.2586  0.3707  0.4081
10096WAT     H141090   3.191   1.735   1.525 -1.1527 -1.2095  1.7177
10096WAT     H241091   3.107   1.713   1.418 -0.3498  0.5043  0.7021
10096WAT    EPW41092   3.172   1.696   1.459  0.5383  0.3804 -0.3014
10097WAT      O41093   1.486   5.537   0.377 -0.1122  0.1986  0.1529
10097WAT     H141094   1.494   5.506   0.296  0.4633 -0.2756  0.3808
10097WAT     H241095   1.470   5.622   0.365  3.0392  0.8423 -0.4853
10097WAT    EPW41096   1.485   5.545   0.363 -0.6589 -0.7238 -0.1933
10098WAT      O41097   4.028   4.309   7.252  1.2273  0.4944  0.3524
10098WAT     H141098   4.062   4.329   7.174  1.6703 -0.1599  0.3736
10098WAT     H241099   4.010   4.388   7.286  0.0839  0.7621 -0.8035
10098WAT    EPW41100   4.030   4.324   7.246 -0.3701 -0.0600 -0.0114
10099WAT      O41101   4.092   3.686   1.763  0.0222  0.2274  0.7302
10099WAT     H141102   4.040   3.617   1.775 -1.7265  1.4239  0.4209
10099WAT     H241103   4.172   3.651   1.759 -0.8484 -1.8236  0.0193
10099WAT    EPW41104   4.097   3.671   1.764 -0.3221 -0.5605 -0.6657
10100WAT      O41105   0.542   1.156   3.984 -0.1539 -0.5248 -0.2722
10100WAT     H141106   0.475   1.121   3.941  1.2545  0.1893 -3.3188
10100WAT     H241107   0.591   1.190   3.920  2.4890  0.0609  1.9142
10100WAT    EPW41108   0.539   1.156   3.968  0.6129  0.0880 -0.2607
10101WAT      O41109   7.238   0.830   3.778  0.2224  0.0325  0.3272
10101WAT     H141110   7.169   0.878   3.800  0.8549  0.9201  0.4204
10101WAT     H241111   7.213   0.790   3.704 -0.0776  1.0157 -0.1122
10101WAT    EPW41112   7.224   0.831   3.770 -0.6406  0.7026  0.4151
10102WAT      O41113   3.792   0.848   3.004 -0.0779 -0.0116 -0.3512
10102WAT     H141114   3.762   0.786   3.058  0.3012 -0.2919 -0.4593
10102WAT     H241115   3.721   0.896   2.986 -0.1643  0.2790  0.6455
10102WAT    EPW41116   3.777   0.846   3.010 -0.4972 -0.3033  0.5604
10103WAT      O41117   2.632   2.769   2.547  0.4367  0.0217  0.8455
10103WAT     H141118   2.564   2.777   2.600 -0.5430  0.1901 -0.3781
10103WAT     H241119   2.642   2.848   2.513  1.4819  0.0857  1.2605
10103WAT    EPW41120   2.624   2.782   2.550 -0.2742  0.1278 -0.2382
10104WAT      O41121   0.159   3.364   1.344  0.6373  0.3278 -0.2260
10104WAT     H141122   0.160   3.451   1.350 -1.8234  0.3646  0.8880
10104WAT     H241123   0.095   3.348   1.288  0.2347 -0.7536  0.5104
10104WAT    EPW41124   0.150   3.374   1.337 -0.1370 -0.1675  0.3735
10105WAT      O41125   2.481   2.375   3.600  0.5298 -0.0431 -0.7154
10105WAT     H141126   2.471   2.294   3.571 -2.7097  0.7430 -2.2776
10105WAT     H241127   2.471   2.424   3.528 -0.5129  1.7943  0.5900
10105WAT    EPW41128   2.478   2.371   3.585  0.3835 -0.1390 -0.3660
10106WAT      O41129   5.097   4.194   6.206  0.3578 -0.0090  0.2747
10106WAT     H141130   5.029   4.202   6.152 -0.1490 -0.7309  0.7840
10106WAT     H241131   5.088   4.113   6.239  1.1770  0.0720  0.7291
10106WAT    EPW41132   5.086   4.183   6.203 -0.0175  0.3084 -0.2800
10107WAT      O41133   4.732   0.209   5.963  0.0410 -0.5607  0.3550
10107WAT     H141134   4.724   0.208   5.876  0.0793 -1.6358  0.3556
10107WAT     H241135   4.818   0.204   5.976  0.2589  2.1134  0.4569
10107WAT    EPW41136   4.743   0.208   5.952  0.4369 -0.1221  0.7342
10108WAT      O41137   0.346   5.991   5.169  0.1536 -0.2471  0.2829
10108WAT     H141138   0.282   6.048   5.188 -0.7710 -0.3841 -2.0357
10108WAT     H241139   0.404   6.004   5.232 -2.0421  0.0640  2.4085
10108WAT    EPW41140   0.345   6.002   5.181  0.1840 -0.3086 -0.4195
10109WAT      O41141   4.231   2.858   1.162  0.6336  0.0968  0.1597
10109WAT     H141142   4.278   2.912   1.212  1.7600 -0.5045 -0.2209
10109WAT     H241143   4.276   2.855   1.087 -0.1232 -0.3408 -0.2920
10109WAT    EPW41144   4.245   2.866   1.158 -0.1100  0.3276 -0.0078
10110WAT      O41145   4.251   1.838   6.757 -0.2686 -0.0533 -0.3490
10110WAT     H141146   4.249   1.870   6.838 -0.8931 -0.9266  0.0015
10110WAT     H241147   4.166   1.826   6.738 -0.1207  0.0204 -1.0887
10110WAT    EPW41148   4.238   1.841   6.766  0.0954 -0.1604 -0.6073
10111WAT      O41149   0.947   3.953   4.079 -0.4332  0.2082  0.3263
10111WAT     H141150   0.925   3.891   4.137 -2.3544  1.0226  0.5486
10111WAT     H241151   1.023   3.982   4.109 -0.2609 -0.9580  1.1127
10111WAT    EPW41152   0.955   3.948   4.092  0.0719 -0.1241  0.7307
10112WAT      O41153   2.849   1.676   2.130 -0.0318  0.4126  0.1318
10112WAT     H141154   2.930   1.683   2.160  0.5493 -0.3152 -1.2088
10112WAT     H241155   2.833   1.754   2.094  0.8041 -0.0557 -1.3095
10112WAT    EPW41156   2.858   1.688   2.129 -0.3231 -0.0754 -0.4039
10113WAT      O41157   0.359   2.209   5.047  0.0492  0.1371 -0.2538
10113WAT     H141158   0.427   2.264   5.046 -1.4900  2.1214 -0.7254
10113WAT     H241159   0.289   2.261   5.048 -1.5225 -1.8152  1.0912
10113WAT    EPW41160   0.359   2.225   5.047  0.1072  0.1889  0.9050
10114WAT      O41161   3.014   5.522   2.037 -0.2636 -0.0480  0.0788
10114WAT     H141162   2.986   5.532   2.119 -0.5920 -0.4683  0.0201
10114WAT     H241163   2.948   5.551   1.989  0.4408  1.4539 -0.0332
10114WAT    EPW41164   3.000   5.528   2.042  0.5551  0.7952  0.3697
10115WAT      O41165   1.115   2.897   4.514 -0.1329  0.0037 -0.9378
10115WAT     H141166   1.132   2.898   4.429 -1.4809  2.4785 -1.2690
10115WAT     H241167   1.123   2.813   4.536 -0.2436 -0.7834 -3.5957
10115WAT    EPW41168   1.119   2.885   4.505  0.1944  0.3252  0.1392
10116WAT      O41169   1.304   3.072   5.241  0.2039 -0.2049  0.0830
10116WAT     H141170   1.322   3.151   5.208  1.6331 -0.2220  0.7338
10116WAT     H241171   1.309   3.019   5.171  1.9251 -0.0611  0.0502
10116WAT    EPW41172   1.308   3.075   5.226 -0.0265  0.4935  0.2665
10117WAT      O41173   0.471   6.062   6.543 -0.5722 -0.0981  0.1593
10117WAT     H141174   0.420   5.992   6.544  0.0313 -0.5484  1.0660
10117WAT     H241175   0.546   6.032   6.510  0.0462 -0.1709  1.5531
10117WAT    EPW41176   0.475   6.048   6.538 -0.9015 -0.1733 -0.3877
10118WAT      O41177   7.391   1.458   0.556  0.0962  0.1623  0.3181
10118WAT     H141178   7.368   1.504   0.486  0.7195 -0.1074 -0.0751
10118WAT     H241179   7.318   1.455   0.604 -0.2542  0.5997 -0.1772
10118WAT    EPW41180   7.377   1.464   0.553 -0.7275  0.1601 -0.0494
10119WAT      O41181   3.011   6.393   3.736  0.5639  0.0866 -0.5447
10119WAT     H141182   2.987   6.357   3.812  1.3186 -1.5367 -1.0399
10119WAT     H241183   2.941   6.383   3.685  0.6710 -0.4186 -0.5923
10119WAT    EPW41184   2.997   6.386   3.740 -0.5109 -0.0623 -0.2678
10120WAT      O41185   2.038   5.992   6.204 -0.0674  0.0345 -0.1642
10120WAT     H141186   2.121   6.017   6.214  0.1625 -0.2506 -1.1640
10120WAT     H241187   1.996   6.032   6.268  0.4723  1.9967 -0.9660
10120WAT    EPW41188   2.044   6.001   6.215  0.3198 -0.1140  0.1951
10121WAT      O41189   2.308   0.277   2.116 -0.4731  0.0238  0.1280
10121WAT     H141190   2.276   0.196   2.116  0.2571 -0.2803  1.0989
10121WAT     H241191   2.361   0.277   2.047 -0.6143 -0.2666  0.0142
10121WAT    EPW41192   2.311   0.265   2.106  0.3643 -0.1705 -0.2259
10122WAT      O41193   2.951   6.350   1.409  0.0439  0.7374  0.6437
10122WAT     H141194   2.867   6.365   1.427  0.5423 -0.2592  4.9753
10122WAT     H241195   2.993   6.392   1.473  2.6719 -1.0423  0.2268
10122WAT    EPW41196   2.945   6.358   1.421 -0.5846  0.3247  0.2452
10123WAT      O41197   7.040   2.088   5.893  0.3250  0.1337  0.0020
10123WAT     H141198   6.979   2.044   5.937  0.0351 -0.4076 -0.9096
10123WAT     H241199   7.019   2.171   5.906 -2.0739  0.0079 -2.1337
10123WAT    EPW41200   7.028   2.094   5.901  0.3244 -0.4613 -1.0112
10124WAT      O41201   3.280   7.486   3.732  0.3586 -0.1099  0.1681
10124WAT     H141202   3.238   7.506   3.805  1.1434 -0.2235  0.6613
10124WAT     H241203   3.330   7.556   3.717 -0.5695  0.3806 -0.8686
10124WAT    EPW41204   3.281   7.499   3.740 -0.3194 -0.4235  0.4050
10125WAT      O41205   2.872   5.699   6.820  0.0898 -0.1530 -0.8686
10125WAT     H141206   2.794   5.717   6.856  0.0897  3.2710 -2.2665
10125WAT     H241207   2.928   5.743   6.870  0.5409  1.2582 -2.5416
10125WAT    EPW41208   2.869   5.708   6.833  0.1253  0.0097  0.4356
10126WAT      O41209   3.542   7.304   6.160  0.4717  0.2287  0.1791
10126WAT     H141210   3.581   7.372   6.198  0.1951  0.6439 -0.2781
10126WAT     H241211   3.583   7.296   6.084  1.2755 -0.8382  0.6867
10126WAT    EPW41212   3.554   7.313   6.155  0.0862  0.2341  0.4150
10127WAT      O41213   1.780   7.014   6.144  0.1841  0.6577  0.0403
10127WAT     H141214   1.777   7.022   6.230  0.7549  2.9514 -0.1042
10127WAT     H241215   1.747   7.089   6.115  1.7849  0.7598 -1.7152
10127WAT    EPW41216   1.775   7.026   6.152  0.3781 -0.6108 -0.1160
10128WAT      O41217   5.067   3.547   0.149  0.3397 -0.5752  0.4234
10128WAT     H141218   4.982   3.529   0.145  0.4565 -0.9484 -0.5098
10128WAT     H241219   5.085   3.580   0.070  1.1844 -1.0580  0.4111
10128WAT    EPW41220   5.057   3.549   0.137 -0.3350 -0.0556 -0.5230
10129WAT      O41221   3.581   5.604   5.821  0.1745  0.2301 -0.0555
10129WAT     H141222   3.645   5.663   5.827  1.4508 -1.0675 -0.4727
10129WAT     H241223   3.598   5.561   5.747 -1.7379  0.4557 -0.6744
10129WAT    EPW41224   3.593   5.606   5.811  0.6189  0.4143 -0.0675
10130WAT      O41225   3.440   7.449   7.300  0.3949 -0.1590  0.2537
10130WAT     H141226   3.456   7.529   7.271  1.0875 -0.8082 -1.2512
10130WAT     H241227   3.367   7.458   7.346 -0.0824  1.1580 -0.7102
10130WAT    EPW41228   3.432   7.462   7.303 -0.5464  0.8950  0.5420
10131WAT      O41229   3.454   3.213   5.709  0.1042 -0.4192 -0.3643
10131WAT     H141230   3.491   3.172   5.641 -0.2141 -0.2936 -0.6186
10131WAT     H241231   3.380   3.167   5.721  0.3880 -0.7279  0.1969
10131WAT    EPW41232   3.448   3.200   5.701 -0.2432  0.5395  0.1402
10132WAT      O41233   5.339   6.023   2.602 -0.4768  0.0559 -0.2774
10132WAT     H141234   5.304   5.988   2.674 -0.0964  0.7518  0.2684
10132WAT     H241235   5.411   5.976   2.589 -0.8063 -0.3875 -0.4928
10132WAT    EPW41236   5.344   6.011   2.611 -0.1480  0.1026  0.4559
10133WAT      O41237   1.918   0.313   1.656 -0.0158  0.8053  0.7254
10133WAT     H141238   1.934   0.318   1.742  1.8599 -2.2229  0.6730
10133WAT     H241239   1.833   0.335   1.650  0.0613  2.1482  3.1608
10133WAT    EPW41240   1.908   0.317   1.668  0.3272  0.5189  0.2458
10134WAT      O41241   6.405   4.093   3.539  0.1592 -0.2305 -0.5650
10134WAT     H141242   6.406   4.007   3.555  0.1609 -0.4963 -1.8703
10134WAT     H241243   6.485   4.118   3.564  0.5118 -0.7971 -1.0950
10134WAT    EPW41244   6.417   4.084   3.545  0.1244  0.0604 -0.1074
10135WAT      O41245   3.534   6.837   6.764  0.4043 -0.2237  0.5928
10135WAT     H141246   3.590   6.903   6.777  0.1585  0.0824  0.1133
10135WAT     H241247   3.538   6.792   6.838  2.2252 -0.9107  0.1457
10135WAT    EPW41248   3.543   6.840   6.777 -0.8666 -0.1366  0.4809
10136WAT      O41249   7.285   4.683   1.713 -0.2391 -0.4421  0.3527
10136WAT     H141250   7.234   4.675   1.783 -1.7422 -0.1182 -0.6553
10136WAT     H241251   7.263   4.762   1.681  1.0546 -0.2011 -0.0053
10136WAT    EPW41252   7.274   4.694   1.718 -0.6574 -0.0080  0.0563
10137WAT      O41253   7.317   3.326   0.080 -0.0880  0.2266 -0.0654
10137WAT     H141254   7.256   3.388   0.070 -0.0961  0.1039 -0.8367
10137WAT     H241255   7.357   3.349   0.154 -0.9765  0.3908  0.3835
10137WAT    EPW41256   7.314   3.339   0.089  0.4794 -0.4900 -0.2369
10138WAT      O41257   0.827   4.579   4.962 -0.0764 -0.0979 -0.0137
10138WAT     H141258   0.787   4.523   5.014 -1.1261 -0.4919 -1.1874
10138WAT     H241259   0.877   4.528   4.911  0.7148  0.2512  0.3936
10138WAT    EPW41260   0.828   4.563   4.962  0.3912 -0.0625  0.4005
10139WAT      O41261   3.407   0.162   5.228  0.2931  0.4803 -0.1448
10139WAT     H141262   3.366   0.239   5.233 -0.8143 -0.1668  1.3097
10139WAT     H241263   3.488   0.181   5.255 -0.4188  0.8501  1.8747
10139WAT    EPW41264   3.413   0.176   5.233 -0.0212 -0.4607 -0.2560
10140WAT      O41265   7.405   6.566   7.274  0.3652  0.2230  0.1308
10140WAT     H141266   7.368   6.631   7.229 -0.5508 -0.4047 -0.0597
10140WAT     H241267   7.452   6.524   7.213 -1.4138 -1.0294 -0.4554
10140WAT    EPW41268   7.407   6.569   7.258  0.1322  0.4823  0.8266
10141WAT      O41269   3.217   6.046   4.470  0.1082  0.1091 -0.5744
10141WAT     H141270   3.252   6.068   4.393  4.5668  1.5465  1.4664
10141WAT     H241271   3.266   5.977   4.495 -1.0173 -0.1494  1.0631
10141WAT    EPW41272   3.230   6.039   4.463  0.0549 -0.2590  0.1579
10142WAT      O41273   2.716   3.875   3.347  0.9518 -0.0420  0.3245
10142WAT     H141274   2.733   3.846   3.427  1.8714 -1.0894 -0.2231
10142WAT     H241275   2.792   3.867   3.305  0.0344 -1.4539 -1.2163
10142WAT    EPW41276   2.730   3.870   3.353  0.2362  0.0990  0.1161
10143WAT      O41277   2.443   2.606   7.132 -0.3764 -0.1402  0.6402
10143WAT     H141278   2.358   2.604   7.116 -0.3268 -0.6070  0.4135
10143WAT     H241279   2.464   2.690   7.124 -0.9685  0.1058  1.5240
10143WAT    EPW41280   2.434   2.618   7.128 -0.1189 -0.1274  0.0358
10144WAT      O41281   3.242   3.662   5.521 -0.5984 -0.2579  0.1028
10144WAT     H141282   3.258   3.578   5.536  1.0649 -0.3229 -1.5448
10144WAT     H241283   3.198   3.662   5.446 -1.8020  0.3085  0.7876
10144WAT    EPW41284   3.238   3.650   5.512  0.3366  0.8067  0.2225
10145WAT      O41285   0.116   6.945   6.674 -0.2646  0.6696  0.3780
10145WAT     H141286   0.164   6.942   6.601 -0.3114  0.3401  0.3602
10145WAT     H241287   0.113   6.862   6.700 -1.1583  0.6288  0.1713
10145WAT    EPW41288   0.123   6.932   6.667  0.3550 -0.1841 -0.2404
10146WAT      O41289   4.197   3.221   4.765  0.1058  0.1943 -0.7111
10146WAT     H141290   4.221   3.140   4.786  0.2127  0.4928  0.3653
10146WAT     H241291   4.262   3.248   4.713 -0.2435 -0.6101 -1.6060
10146WAT    EPW41292   4.210   3.213   4.760  0.2896  0.0646 -0.4695
10147WAT      O41293   5.013   4.358   6.714  0.3369  0.4442  0.0203
10147WAT     H141294   4.954   4.294   6.715 -0.1391  0.8844  0.8591
10147WAT     H241295   5.056   4.349   6.789 -0.7503  2.0099  0.8962
10147WAT    EPW41296   5.011   4.347   6.725  0.4557 -0.1492 -0.2906
10148WAT      O41297   5.803   5.321   3.127  0.0749  0.1174 -0.2524
10148WAT     H141298   5.824   5.373   3.194  1.1273 -2.0504  1.2039
10148WAT     H241299   5.716   5.319   3.128  0.0191 -1.8735  2.8309
10148WAT    EPW41300   5.793   5.329   3.137  0.5220  0.2158  0.1902
10149WAT      O41301   2.991   4.052   2.729  0.2212  0.0313  0.3415
10149WAT     H141302   3.057   4.106   2.716  0.6517 -0.3148  1.0649
10149WAT     H241303   3.001   3.992   2.666  0.5636  0.0135  0.4109
10149WAT    EPW41304   3.002   4.051   2.718 -0.2948 -0.1215  0.8213
10150WAT      O41305   0.589   4.350   0.875 -0.4175 -0.0197 -0.2774
10150WAT     H141306   0.555   4.344   0.955  0.3761 -0.8527  0.0219
10150WAT     H241307   0.675   4.361   0.890 -0.4702  1.6417 -1.0039
10150WAT    EPW41308   0.597   4.350   0.889 -0.3547  0.6497 -0.4648
10151WAT      O41309   4.095   5.692   1.746  0.0365  0.7390  0.9863
10151WAT     H141310   4.067   5.610   1.756 -0.9592  1.2319  2.7354
10151WAT     H241311   4.164   5.697   1.799  0.5063  0.8781  0.3795
10151WAT    EPW41312   4.101   5.681   1.755  0.0754 -0.7456  0.1600
10152WAT      O41313   0.670   6.333   2.026 -0.4917  0.4954 -0.0667
10152WAT     H141314   0.666   6.266   2.083  2.8592 -1.7737 -2.1088
10152WAT     H241315   0.592   6.332   1.989 -1.0620 -1.3585  1.0175
10152WAT    EPW41316   0.658   6.323   2.029  0.3453 -0.0942 -0.4631
10153WAT      O41317   1.571   1.271   3.099 -0.0148 -0.1485 -0.1796
10153WAT     H141318   1.640   1.315   3.130  0.2386 -0.0236 -0.8877
10153WAT     H241319   1.528   1.246   3.171  0.3714  0.4056  0.2534
10153WAT    EPW41320   1.575   1.273   3.114 -0.1999 -0.0270  0.1924
10154WAT      O41321   2.988   6.753   1.374  0.6743 -0.4022  0.3144
10154WAT     H141322   2.925   6.699   1.348  0.5841 -0.1434 -0.0127
10154WAT     H241323   2.967   6.770   1.457  0.2419 -0.2306  0.1759
10154WAT    EPW41324   2.976   6.748   1.383  0.6433  0.3930  0.4012
10155WAT      O41325   0.833   4.030   2.894  0.3336 -0.5715  0.0367
10155WAT     H141326   0.793   4.083   2.951  0.1780 -0.2508 -0.3640
10155WAT     H241327   0.867   3.968   2.945 -0.1558 -0.5195  0.4421
10155WAT    EPW41328   0.832   4.029   2.910  0.0463  0.2349  0.1761
10156WAT      O41329   1.672   2.490   3.875  0.4358  0.5227 -0.0260
10156WAT     H141330   1.615   2.468   3.813  1.5044 -0.1856 -0.7889
10156WAT     H241331   1.675   2.420   3.926  1.0277  0.3297 -0.3127
10156WAT    EPW41332   1.664   2.476   3.873 -0.5227  0.7466 -0.1429
10157WAT      O41333   1.707   2.674   6.002  0.1597 -0.8534  0.1852
10157WAT     H141334   1.678   2.698   6.080  1.8300  1.4156  0.2160
10157WAT     H241335   1.666   2.727   5.946 -0.4982 -1.9832 -0.4476
10157WAT    EPW41336   1.697   2.685   6.005  0.2266  0.1818 -0.6421
10158WAT      O41337   6.414   1.363   1.489 -0.2029  1.0460  0.0035
10158WAT     H141338   6.396   1.334   1.409  2.8177 -1.4285 -0.0057
10158WAT     H241339   6.337   1.366   1.529 -1.5875  0.6785 -2.4735
10158WAT    EPW41340   6.400   1.359   1.483  0.0862 -0.0205  0.3674
10159WAT      O41341   6.129   2.392   6.080 -0.5547 -0.6538 -0.6072
10159WAT     H141342   6.116   2.372   5.996  1.5943 -0.4166 -1.0708
10159WAT     H241343   6.194   2.339   6.103  0.2588  0.6865  0.2867
10159WAT    EPW41344   6.137   2.381   6.071  0.0731  0.6186 -0.5145
10160WAT      O41345   5.428   2.727   3.914  0.4709 -0.2816  0.5912
10160WAT     H141346   5.366   2.716   3.973 -1.5855 -0.7862 -1.4980
10160WAT     H241347   5.468   2.650   3.909  0.8061 -0.1712  1.4100
10160WAT    EPW41348   5.425   2.714   3.922  0.0065 -0.3805  0.2204
10161WAT      O41349   0.670   2.644   3.289  0.2235  1.0752  0.3112
10161WAT     H141350   0.592   2.651   3.251  0.9984  0.7747 -1.4338
10161WAT     H241351   0.681   2.558   3.298  0.2694  1.1257  0.7655
10161WAT    EPW41352   0.660   2.633   3.284 -0.1804 -0.1716  0.2462
10162WAT      O41353   5.725   0.076   3.507 -0.3128 -0.8374  0.1854
10162WAT     H141354   5.781   0.072   3.440  0.4124 -1.8384  0.8348
10162WAT     H241355   5.727   0.160   3.530  0.9598 -0.8570  0.2172
10162WAT    EPW41356   5.733   0.088   3.500 -0.0517 -0.0919 -0.1232
10163WAT      O41357   4.493   3.437   7.157  0.1284  0.3027 -0.0036
10163WAT     H141358   4.446   3.460   7.088 -0.2424  0.5893  0.3370
10163WAT     H241359   4.434   3.407   7.213  0.1524  1.9122  0.9600
10163WAT    EPW41360   4.478   3.436   7.155 -0.3890  0.1168  0.4119
10164WAT      O41361   6.811   0.739   1.453  0.4174 -0.0486  0.2637
10164WAT     H141362   6.787   0.741   1.537 -2.1859  0.6108 -0.4170
10164WAT     H241363   6.736   0.738   1.410  1.6762  0.1468 -2.1100
10164WAT    EPW41364   6.797   0.739   1.459  0.3816 -0.1627 -0.4984
10165WAT      O41365   0.974   6.640   6.712  0.1155  0.0628 -0.0904
10165WAT     H141366   1.027   6.698   6.750  0.5485 -0.2173 -0.2589
10165WAT     H241367   0.911   6.628   6.771  0.5283 -0.0084  0.3435
10165WAT    EPW41368   0.972   6.647   6.726  0.0712 -0.2202  0.5967
10166WAT      O41369   2.768   2.520   5.752 -0.6201 -0.2868  0.2346
10166WAT     H141370   2.790   2.437   5.744  2.2757  0.4905 -0.8701
10166WAT     H241371   2.687   2.523   5.720 -1.5555 -2.9135  2.0189
10166WAT    EPW41372   2.759   2.508   5.746  0.1426 -0.2176  0.2396
10167WAT      O41373   0.084   5.573   1.048  0.1942 -0.0209  0.4333
10167WAT     H141374   0.080   5.514   1.112  0.3185  0.2381  0.6781
10167WAT     H241375   0.002   5.602   1.040  0.4267  0.9604  1.4224
10167WAT    EPW41376   0.071   5.568   1.056 -0.5569  0.4604 -0.0422
10168WAT      O41377   5.357   3.432   5.750  0.5306  0.0769  0.1548
10168WAT     H141378   5.283   3.479   5.745  0.2621  0.1893  3.3962
10168WAT     H241379   5.420   3.491   5.741  0.3574 -0.0111 -2.5765
10168WAT    EPW41380   5.355   3.447   5.748  0.1536 -0.0130  0.3555
10169WAT      O41381   0.201   5.879   6.248  0.0279 -0.1880 -0.1952
10169WAT     H141382   0.178   5.802   6.282 -0.6683  0.0598 -0.0957
10169WAT     H241383   0.134   5.932   6.269  0.8692  0.6534  0.4792
10169WAT    EPW41384   0.188   5.875   6.256 -0.9652  0.3061  0.4378
10170WAT      O41385   2.808   5.706   4.921  0.2410 -0.3416  0.2094
10170WAT     H141386   2.776   5.677   4.845 -1.6635 -0.2642  0.9195
10170WAT     H241387   2.892   5.683   4.918  0.5940  0.8978 -2.4934
10170WAT    EPW41388   2.815   5.698   4.909  0.1445  0.0739 -0.5241
10171WAT      O41389   2.823   6.396   6.538 -0.0721  0.3000  0.0308
10171WAT     H141390   2.773   6.406   6.609  1.2809  0.3801  0.9998
10171WAT     H241391   2.866   6.322   6.553  1.2846  1.0454 -0.0194
10171WAT    EPW41392   2.822   6.387   6.551 -0.8338  0.2271  0.2221
10172WAT      O41393   3.342   0.071   2.344  0.0802 -0.4267 -0.2547
10172WAT     H141394   3.357   0.155   2.363  0.9011 -0.8116  0.8768
10172WAT     H241395   3.289   0.075   2.275 -2.6052  1.0878  1.6927
10172WAT    EPW41396   3.336   0.084   2.337 -0.1257  0.4862  0.5683
10173WAT      O41397   2.185   3.250   5.551 -0.5258  0.6771  0.0863
10173WAT     H141398   2.183   3.337   5.559  0.1194  0.6007  1.3728
10173WAT     H241399   2.103   3.229   5.528 -0.1704  1.7729 -2.4559
10173WAT    EPW41400   2.173   3.260   5.549 -0.1714 -0.7055  0.9207
10174WAT      O41401   4.683   1.934   0.760 -0.4770 -0.1212 -0.5253
10174WAT     H141402   4.697   1.871   0.819  0.2793  0.8792  0.3962
10174WAT     H241403   4.637   1.893   0.698 -0.5478 -1.4238  0.3346
10174WAT    EPW41404   4.678   1.918   0.760 -0.1261 -0.1186  0.1024
10175WAT      O41405   0.177   4.591   0.273 -0.7095  0.1440  0.3026
10175WAT     H141406   0.149   4.508   0.266  0.1400 -0.1662  0.4483
10175WAT     H241407   0.126   4.624   0.336 -1.5109 -0.0640 -0.2290
10175WAT    EPW41408   0.165   4.584   0.281 -0.6489 -0.5769  0.5305
10176WAT      O41409   1.280   2.766   5.467  0.6297  0.4041  0.3884
10176WAT     H141410   1.235   2.840   5.475  2.2428  1.4587  0.0526
10176WAT     H241411   1.286   2.755   5.381 -0.3268 -0.6260  0.4213
10176WAT    EPW41412   1.274   2.775   5.456  0.2139  0.1513 -0.4876
10177WAT      O41413   5.347   6.898   7.138 -0.4973  0.0627  0.4663
10177WAT     H141414   5.269   6.937   7.131 -0.6318 -0.1540  0.7390
10177WAT     H241415   5.402   6.957   7.105 -0.9654 -0.4604 -1.3431
10177WAT    EPW41416   5.344   6.912   7.132 -0.0039  0.1875  0.7258
10178WAT      O41417   0.082   4.547   1.943 -0.5713  0.3120 -0.1965
10178WAT     H141418   0.019   4.488   1.958 -0.8091  1.1523  2.8929
10178WAT     H241419   0.043   4.607   1.894 -1.8255  0.1638  0.5768
10178WAT    EPW41420   0.067   4.547   1.938 -0.5501  0.2014  0.0870
10179WAT      O41421   2.103   5.226   2.975  0.1134  0.1171  0.0130
10179WAT     H141422   2.188   5.210   2.982 -0.1696 -0.8519  1.7371
10179WAT     H241423   2.099   5.312   2.958  1.4630 -0.2283 -2.5057
10179WAT    EPW41424   2.115   5.237   2.973 -0.5580 -0.5754  0.3721
10180WAT      O41425   5.123   1.320   4.618  0.1549  0.0856 -0.1433
10180WAT     H141426   5.103   1.327   4.534 -2.1176  1.1328  0.4227
10180WAT     H241427   5.185   1.258   4.620  0.6703  0.4488 -2.5996
10180WAT    EPW41428   5.129   1.311   4.606 -0.3834  0.4881 -0.1357
10181WAT      O41429   2.152   6.704   6.550 -0.4459 -0.2208 -0.1948
10181WAT     H141430   2.185   6.784   6.563  1.8368 -1.3841  1.9688
10181WAT     H241431   2.160   6.693   6.464 -0.0372  1.5504 -0.4300
10181WAT    EPW41432   2.158   6.714   6.539  0.0875 -0.2270  0.0513
10182WAT      O41433   4.390   4.795   7.315 -0.3687 -0.7460 -0.1253
10182WAT     H141434   4.476   4.805   7.320 -0.3419  1.4000 -2.6975
10182WAT     H241435   4.380   4.729   7.259 -0.3541  0.0782 -1.1163
10182WAT    EPW41436   4.401   4.787   7.308  0.5888 -0.0244 -0.3824
10183WAT      O41437   0.067   2.726   0.526 -0.6250 -0.2974 -0.0562
10183WAT     H141438   0.056   2.764   0.448  1.6806 -1.1272 -0.8641
10183WAT     H241439   0.072   2.641   0.507  0.7231 -0.4617  0.8608
10183WAT    EPW41440   0.066   2.719   0.512 -0.6366  0.5294  0.2511
10184WAT      O41441   0.687   3.192   2.053  0.2329 -0.0752 -0.2914
10184WAT     H141442   0.650   3.261   2.091 -0.0053  0.2101 -1.0106
10184WAT     H241443   0.619   3.148   2.019  0.3795 -0.6880  0.1801
10184WAT    EPW41444   0.671   3.196   2.053  0.1363  0.3471  0.1069
10185WAT      O41445   2.156   6.919   5.217 -0.3814 -0.0112 -0.4909
10185WAT     H141446   2.195   6.960   5.151  1.5148 -0.8004  0.0529
10185WAT     H241447   2.103   6.861   5.178 -0.6994  0.7862 -1.2707
10185WAT    EPW41448   2.154   6.916   5.202  0.2293  0.5002  0.1898
10186WAT      O41449   3.359   0.460   7.286  0.0467  0.2877 -0.2576
10186WAT     H141450   3.437   0.425   7.305 -0.0832  0.6305  0.9588
10186WAT     H241451   3.377   0.517   7.222  1.1585  1.7438  1.2651
10186WAT    EPW41452   3.373   0.464   7.279  0.2755 -0.3694  0.0091
10187WAT      O41453   2.472   4.934   0.842  0.4794  0.0177  0.3879
10187WAT     H141454   2.474   4.847   0.839 -1.2357 -0.0304 -1.3992
10187WAT     H241455   2.527   4.958   0.778  3.7446  0.4462  3.0866
10187WAT    EPW41456   2.480   4.924   0.832  0.0770 -0.2952  0.7097
10188WAT      O41457   5.393   5.128   6.262  0.1244 -0.1900 -0.1921
10188WAT     H141458   5.324   5.145   6.211 -0.1975 -0.9566 -0.0141
10188WAT     H241459   5.358   5.111   6.340  0.5291 -0.3900 -0.0521
10188WAT    EPW41460   5.378   5.128   6.266  0.6232 -0.3002  0.1935
10189WAT      O41461   3.595   5.624   1.022  0.3117  0.3957 -0.5217
10189WAT     H141462   3.622   5.599   0.943 -0.0732 -0.5979 -0.3513
10189WAT     H241463   3.664   5.668   1.054 -0.1598  2.4795 -2.0897
10189WAT    EPW41464   3.609   5.627   1.015 -0.6814  0.3756  0.1922
10190WAT      O41465   5.252   6.883   6.817 -0.5847 -0.1460 -0.3648
10190WAT     H141466   5.302   6.947   6.785  0.3878  0.5824  2.3465
10190WAT     H241467   5.310   6.820   6.837 -1.1552 -0.6428 -0.2558
10190WAT    EPW41468   5.268   6.883   6.815  0.2890 -0.1379  0.2268
10191WAT      O41469   0.892   0.488   7.318  0.5401 -0.3307 -0.0539
10191WAT     H141470   0.836   0.423   7.304  1.7881 -1.1699 -1.4475
10191WAT     H241471   0.933   0.465   7.392  0.4750 -0.7794 -0.1552
10191WAT    EPW41472   0.890   0.475   7.327  0.1300 -0.7858 -0.4727
10192WAT      O41473   6.139   6.121   4.105  0.6376  0.3893 -1.1650
10192WAT     H141474   6.135   6.208   4.101  0.2689  0.5206  0.9687
10192WAT     H241475   6.096   6.096   4.034 -0.6198  1.9657 -1.0339
10192WAT    EPW41476   6.132   6.130   4.094 -0.1654  0.2151  0.0218
10193WAT      O41477   7.270   5.871   7.119  0.0545  0.0899  0.0084
10193WAT     H141478   7.252   5.956   7.105  1.8520  0.4806 -0.2280
10193WAT     H241479   7.196   5.831   7.097 -1.3219  1.6830  1.4532
10193WAT    EPW41480   7.257   5.878   7.113 -0.0989 -0.1878 -0.8537
10194WAT      O41481   2.931   4.500   3.712  0.0340 -0.2386  0.3232
10194WAT     H141482   3.007   4.462   3.728  0.0898 -0.5049 -0.5325
10194WAT     H241483   2.876   4.433   3.702  0.5444 -0.3096 -3.3716
10194WAT    EPW41484   2.934   4.484   3.713  0.1453  0.0929 -0.0087
10195WAT      O41485   1.881   3.233   5.094 -0.1358  0.1365  0.5296
10195WAT     H141486   1.942   3.287   5.126  1.8845 -1.4867 -0.3613
10195WAT     H241487   1.864   3.179   5.159  0.3655 -0.1908  0.3974
10195WAT    EPW41488   1.888   3.233   5.108 -0.3354 -0.3861  0.1060
10196WAT      O41489   0.933   1.518   5.600 -0.0429 -0.3271  0.3718
10196WAT     H141490   0.967   1.515   5.681  1.3541 -0.6158 -0.1990
10196WAT     H241491   0.847   1.517   5.614  0.1111  1.7145  1.9505
10196WAT    EPW41492   0.925   1.518   5.614 -0.4923 -0.7680  0.3757
10197WAT      O41493   2.343   5.198   0.652  0.1254 -0.1948 -0.3545
10197WAT     H141494   2.409   5.173   0.601  1.3626  0.9275  0.6274
10197WAT     H241495   2.369   5.175   0.732 -0.1738  1.1975  0.1731
10197WAT    EPW41496   2.356   5.191   0.656  0.0812 -0.4107  0.4016
10198WAT      O41497   5.756   2.627   6.603  0.6694  0.0168 -0.8638
10198WAT     H141498   5.822   2.614   6.548  0.8131  0.1276 -0.7185
10198WAT     H241499   5.794   2.625   6.681  0.4735 -0.0858 -0.7716
10198WAT    EPW41500   5.771   2.625   6.606 -0.6646 -0.0755  0.3386
10199WAT      O41501   4.392   5.711   5.724 -0.2327  0.6023 -0.2307
10199WAT     H141502   4.463   5.693   5.771  1.4978  1.3975 -2.3683
10199WAT     H241503   4.384   5.797   5.731 -0.0880  0.6997 -1.1989
10199WAT    EPW41504   4.401   5.721   5.732 -0.6589  0.0219 -0.7071
10200WAT      O41505   3.790   2.376   0.406  0.1234  0.6037  0.5903
10200WAT     H141506   3.803   2.453   0.446 -1.4391  1.3301 -0.2259
10200WAT     H241507   3.715   2.347   0.440  0.4326 -0.3294  0.5125
10200WAT    EPW41508   3.781   2.383   0.417  0.3273  0.5867 -0.0107
10201WAT      O41509   3.591   1.464   0.297  0.5403  0.1439  0.3331
10201WAT     H141510   3.591   1.519   0.365  0.1094  1.9588 -1.0416
10201WAT     H241511   3.543   1.506   0.237  0.9796 -1.3349 -1.1373
10201WAT    EPW41512   3.584   1.478   0.298 -0.3281 -0.6578 -0.2893
10202WAT      O41513   2.501   7.036   3.991 -0.3317  0.1760  0.0116
10202WAT     H141514   2.427   7.080   4.009  0.6003  1.7648  0.1490
10202WAT     H241515   2.553   7.097   3.957  1.8180 -0.2437  2.2456
10202WAT    EPW41516   2.497   7.052   3.989 -0.2088  0.1511  1.0150
10203WAT      O41517   0.068   6.245   7.385 -0.7298 -0.0419  0.4171
10203WAT     H141518   0.102   6.240   7.465 -2.5537 -0.3400  1.2219
10203WAT     H241519   0.128   6.207   7.335  0.1582 -0.4466  1.7337
10203WAT    EPW41520   0.082   6.239   7.390  0.2770  0.0990  0.1073
10204WAT      O41521   1.804   3.841   1.199  0.7456  0.4124  0.2325
10204WAT     H141522   1.782   3.757   1.188  1.3465  0.2663  0.1045
10204WAT     H241523   1.795   3.853   1.285 -1.2698  0.7842  0.0125
10204WAT    EPW41524   1.800   3.830   1.210  0.0849 -0.4952 -0.4013
10205WAT      O41525   6.559   4.266   0.216 -0.1199 -0.3812  0.2169
10205WAT     H141526   6.540   4.229   0.139 -0.8309  1.0686 -0.3532
10205WAT     H241527   6.506   4.226   0.272  0.0919 -1.1498 -0.1246
10205WAT    EPW41528   6.549   4.255   0.213 -0.5749  0.2474  0.0423
10206WAT      O41529   3.563   4.431   0.589  0.0484  0.0171 -0.2145
10206WAT     H141530   3.563   4.344   0.600 -0.4353  0.1336  0.9160
10206WAT     H241531   3.551   4.461   0.670  1.9941  1.1928 -0.3076
10206WAT    EPW41532   3.561   4.423   0.603  0.8545 -0.1448  0.2067
10207WAT      O41533   1.762   2.009   7.279 -0.0152  0.1358  0.1179
10207WAT     H141534   1.784   2.029   7.361  0.4135 -2.0242  0.5692
10207WAT     H241535   1.676   2.025   7.277 -0.4254 -1.5511  1.5898
10207WAT    EPW41536   1.752   2.015   7.291  0.4271 -0.6084  0.0636
10208WAT      O41537   0.324   3.382   0.875  0.2398 -0.6481 -0.0555
10208WAT     H141538   0.401   3.400   0.837  0.9269 -0.3659  1.4098
10208WAT     H241539   0.306   3.455   0.919 -0.6759 -0.8635 -0.0592
10208WAT    EPW41540   0.333   3.396   0.876 -0.2948 -0.0168 -0.0601
10209WAT      O41541   5.483   4.070   3.096 -0.1754 -0.1539 -0.1951
10209WAT     H141542   5.526   4.060   3.021  0.1700  0.7653 -0.1396
10209WAT     H241543   5.409   4.027   3.083 -0.0046 -0.2371 -0.9672
10209WAT    EPW41544   5.479   4.062   3.083  0.1398  0.5275 -0.1184
10210WAT      O41545   2.749   2.550   4.487 -0.1474  0.0791 -0.3312
10210WAT     H141546   2.751   2.634   4.463 -0.0641 -0.4943 -2.5213
10210WAT     H241547   2.826   2.538   4.526  2.7580 -0.3139 -5.3127
10210WAT    EPW41548   2.760   2.561   4.489  0.2947  0.2286 -0.2017
10211WAT      O41549   3.041   1.741   4.282  0.1317  0.7359 -0.4041
10211WAT     H141550   2.981   1.701   4.233  0.6177 -0.6582  0.0707
10211WAT     H241551   3.016   1.724   4.363  1.7058 -0.8718 -0.1724
10211WAT    EPW41552   3.029   1.732   4.287 -0.0349  0.4294 -0.2189
10212WAT      O41553   4.649   4.847   7.587  0.0470 -0.3402 -0.1288
10212WAT     H141554   4.647   4.918   7.638 -0.8647 -2.0722  2.4087
10212WAT     H241555   4.643   4.880   7.506  2.2478  2.5949  0.7204
10212WAT    EPW41556   4.648   4.862   7.583  0.1670  0.0889  0.1810
10213WAT      O41557   4.611   7.449   4.122 -0.2927 -0.1467 -0.1975
10213WAT     H141558   4.583   7.464   4.203 -1.7936 -0.0515 -0.7047
10213WAT     H241559   4.564   7.504   4.073  2.0884  1.3673 -0.9769
10213WAT    EPW41560   4.600   7.459   4.127  0.6014  0.3129  0.1414
10214WAT      O41561   4.417   6.311  -0.002 -1.0997 -0.2275 -0.3867
10214WAT     H141562   4.467   6.366   0.042 -0.4265 -1.1533  0.0422
10214WAT     H241563   4.336   6.329   0.025 -0.6694 -1.2645  1.8632
10214WAT    EPW41564   4.412   6.322   0.008 -0.3516 -0.0940  0.4591
10215WAT      O41565   6.299   4.809   1.090 -0.3123  0.0200  0.3534
10215WAT     H141566   6.308   4.852   1.165 -1.9279  0.9950  0.0240
10215WAT     H241567   6.216   4.824   1.067 -1.1057 -3.6012  0.3829
10215WAT    EPW41568   6.288   4.818   1.098  0.0555 -0.0757  0.1132
10216WAT      O41569   0.576   1.563   3.186  0.4156 -0.2493  0.1919
10216WAT     H141570   0.520   1.630   3.179 -0.8887 -1.0846  1.9269
10216WAT     H241571   0.648   1.600   3.220  0.2546  0.5076 -0.2673
10216WAT    EPW41572   0.578   1.578   3.190 -0.1122 -0.7622 -0.6062
10217WAT      O41573   1.681   5.757   3.215  0.5962  0.2942  0.9421
10217WAT     H141574   1.655   5.840   3.229  2.0215  1.1480 -1.0282
10217WAT     H241575   1.624   5.729   3.155  0.3899 -0.0280  1.2838
10217WAT    EPW41576   1.669   5.765   3.208  0.3742 -0.6464  0.0345
10218WAT      O41577   5.042   1.391   4.871 -0.0513  0.1254  0.0092
10218WAT     H141578   5.117   1.413   4.910  0.2446 -1.2850  0.2915
10218WAT     H241579   5.067   1.360   4.794 -0.1125 -2.0799  0.7946
10218WAT    EPW41580   5.056   1.389   4.865 -0.6405  0.4311 -0.2526
10219WAT      O41581   7.263   2.193   1.113 -0.0136 -0.1506 -0.0276
10219WAT     H141582   7.197   2.243   1.085 -0.9346 -1.0697  0.4017
10219WAT     H241583   7.260   2.201   1.199  1.8654  1.4941 -0.0368
10219WAT    EPW41584   7.253   2.201   1.121 -0.3337 -0.3556  0.1756
10220WAT      O41585   1.565   3.032   5.325  0.4366  0.3587  0.2217
10220WAT     H141586   1.479   3.028   5.312  0.6487  1.4491 -1.8944
10220WAT     H241587   1.581   2.963   5.376 -1.5862 -0.2293  0.1485
10220WAT    EPW41588   1.555   3.021   5.331 -0.0764  0.0123  0.4335
10221WAT      O41589   1.396   6.011   1.633 -0.1667  0.2102 -1.1897
10221WAT     H141590   1.361   5.953   1.579 -2.3651  0.2858  0.0185
10221WAT     H241591   1.470   6.036   1.593  0.3339 -2.6072 -2.2024
10221WAT    EPW41592   1.402   6.006   1.619  0.1434 -0.2113 -0.5035
10222WAT      O41593   5.034   0.655   4.018 -0.3345  0.1627  0.1623
10222WAT     H141594   5.096   0.633   3.961 -1.2444  1.4353 -1.3901
10222WAT     H241595   5.055   0.609   4.090  1.0854 -1.1630 -1.0291
10222WAT    EPW41596   5.046   0.645   4.021 -0.5353 -0.1734  0.1469
10223WAT      O41597   7.122   1.710   7.295  0.0271 -0.2788  0.4209
10223WAT     H141598   7.124   1.769   7.230  0.7634 -0.7238  0.0278
10223WAT     H241599   7.092   1.755   7.363  1.4070  0.7848  0.3603
10223WAT    EPW41600   7.118   1.725   7.295  0.2778  0.2800 -0.1456
10224WAT      O41601   5.836   7.228   5.373  0.2688 -0.0440 -0.4889
10224WAT     H141602   5.782   7.239   5.306  1.6362  1.4659 -1.4297
10224WAT     H241603   5.844   7.309   5.406 -0.2192 -0.7176  1.4157
10224WAT    EPW41604   5.829   7.242   5.368 -0.6420 -0.2536 -0.1240
10225WAT      O41605   1.584   4.572   3.023  0.2244  0.5985  0.3571
10225WAT     H141606   1.666   4.593   3.044 -0.5456  1.3511  3.1115
10225WAT     H241607   1.538   4.642   3.048 -1.7520 -1.6612  4.0370
10225WAT    EPW41608   1.589   4.585   3.030 -0.0469  0.5848  0.2345
10226WAT      O41609   1.694   0.374   7.424  0.0988  0.1323  0.6308
10226WAT     H141610   1.775   0.401   7.441 -0.2366  0.2503  2.2273
10226WAT     H241611   1.649   0.449   7.417 -0.0001  0.0543  0.4355
10226WAT    EPW41612   1.699   0.389   7.425 -0.0304  0.6552  0.5667
10227WAT      O41613   0.256   1.468   7.042 -0.5527  0.0527 -0.4523
10227WAT     H141614   0.315   1.533   7.044  1.4778 -1.6583 -1.1333
10227WAT     H241615   0.238   1.460   6.957  0.0828 -0.9789 -0.5039
10227WAT    EPW41616   0.262   1.476   7.030  0.0252  0.5482 -0.6084
10228WAT      O41617   7.310   3.627   1.627  0.3252 -0.5597 -0.0997
10228WAT     H141618   7.264   3.625   1.701 -0.1585  2.5662 -0.1843
10228WAT     H241619   7.252   3.606   1.565 -0.5229  1.2538  0.0199
10228WAT    EPW41620   7.295   3.623   1.629 -0.3403 -0.1057  0.5705
10229WAT      O41621   6.581   7.219   5.405 -0.6776 -0.6979  0.2710
10229WAT     H141622   6.635   7.288   5.412 -2.2559  0.5523  0.7282
10229WAT     H241623   6.577   7.205   5.319  1.2948 -1.6209  0.2744
10229WAT    EPW41624   6.589   7.227   5.393 -0.0018 -0.0718 -0.2768
10230WAT      O41625   0.699   4.147   7.189 -0.0439  0.1267  0.0492
10230WAT     H141626   0.761   4.204   7.214 -0.9132  1.5987 -1.0098
10230WAT     H241627   0.683   4.101   7.262  2.4358 -0.4849  0.3023
10230WAT    EPW41628   0.706   4.148   7.204 -0.3968  0.3966  0.1879
10231WAT      O41629   7.140   5.603   2.856 -0.3765  0.0760  0.2146
10231WAT     H141630   7.202   5.591   2.916 -1.9237  1.1814  2.1080
10231WAT     H241631   7.184   5.593   2.781  1.5485 -1.6908  1.4596
10231WAT    EPW41632   7.156   5.600   2.853  0.2246 -0.9371  0.4871
10232WAT      O41633   4.692   2.112   1.489  0.1115  0.7428  0.0443
10232WAT     H141634   4.702   2.184   1.441  0.8943 -0.3723 -1.5616
10232WAT     H241635   4.740   2.128   1.560 -0.1183  1.9703 -0.0580
10232WAT    EPW41636   4.701   2.125   1.492 -0.1821  1.0284  0.1227
10233WAT      O41637   7.430   5.234   4.150  1.0388  0.2369  0.1912
10233WAT     H141638   7.460   5.297   4.098  1.6561 -0.8123 -0.7641
10233WAT     H241639   7.488   5.170   4.139 -0.2600 -0.9648  0.1657
10233WAT    EPW41640   7.443   5.234   4.141 -0.1808  0.3742  0.2963
10234WAT      O41641   2.351   2.166   6.910  0.7638 -0.2012  0.1156
10234WAT     H141642   2.348   2.079   6.914 -0.6412 -0.1274  1.6752
10234WAT     H241643   2.322   2.184   6.830 -0.7428 -1.1431  0.4085
10234WAT    EPW41644   2.346   2.155   6.899  0.0243 -0.9381 -0.7418
10235WAT      O41645   6.343   5.929   4.658 -0.2225  0.3170 -0.0380
10235WAT     H141646   6.299   6.003   4.645  0.8280  1.1957  1.0582
10235WAT     H241647   6.297   5.889   4.721 -1.3057 -0.4540 -1.2683
10235WAT    EPW41648   6.330   5.934   4.666  0.4619 -0.2858  0.7954
10236WAT      O41649   2.323   6.469   3.301  0.5214  0.5788 -0.0685
10236WAT     H141650   2.333   6.491   3.217  2.7660 -1.0278 -0.3332
10236WAT     H241651   2.248   6.426   3.302  0.4077  0.7069 -1.2435
10236WAT    EPW41652   2.314   6.466   3.288  0.3115  0.0067  0.0284
10237WAT      O41653   2.491   6.790   2.942 -0.5588 -0.4070  0.8764
10237WAT     H141654   2.437   6.857   2.929 -0.3148 -0.2268  0.7673
10237WAT     H241655   2.564   6.828   2.972 -0.2672 -0.5707  0.4005
10237WAT    EPW41656   2.494   6.805   2.945  0.0998  0.3429  0.4755
10238WAT      O41657   4.757   7.568   6.735 -0.5037 -0.4118 -0.4235
10238WAT     H141658   4.760   7.628   6.672 -1.0100 -0.3661 -0.4061
10238WAT     H241659   4.730   7.496   6.693 -0.0778 -0.5836 -0.4086
10238WAT    EPW41660   4.753   7.566   6.719  0.1164 -0.2637 -0.0535
10239WAT      O41661   7.438   2.077   4.252  0.0771  0.2132  0.3087
10239WAT     H141662   7.384   2.145   4.254  1.1441  1.0602  1.1202
10239WAT     H241663   7.517   2.112   4.259  0.5858 -1.1696  2.4412
10239WAT    EPW41664   7.442   2.092   4.253 -0.4949 -0.4491  0.2994
10240WAT      O41665   4.902   2.557   7.017  0.1651 -0.6929  0.5392
10240WAT     H141666   4.983   2.576   7.042 -0.2412  0.9152  0.7983
10240WAT     H241667   4.852   2.602   7.074 -0.8155  0.7909 -1.3593
10240WAT    EPW41668   4.907   2.567   7.029 -0.4516  0.1985 -0.1745
10241WAT      O41669   6.367   0.214   4.455  0.2224  0.0025  0.7336
10241WAT     H141670   6.393   0.265   4.389  3.0357 -0.8201  1.0566
10241WAT     H241671   6.442   0.179   4.484 -0.7911  0.5708  4.5816
10241WAT    EPW41672   6.382   0.217   4.449  0.1549 -0.5324  0.2723
10242WAT      O41673   5.948   4.247   5.925  0.1436 -0.2891  0.1367
10242WAT     H141674   5.987   4.235   6.001  1.4275 -2.6535 -0.8129
10242WAT     H241675   6.000   4.305   5.884 -0.9586  1.5905  1.2327
10242WAT    EPW41676   5.961   4.254   5.930 -0.0011 -0.0076 -1.0816
10243WAT      O41677   1.352   3.120   7.513  0.2221  0.0087 -0.0145
10243WAT     H141678   1.390   3.053   7.554  3.2912 -0.7737 -3.5951
10243WAT     H241679   1.287   3.081   7.468 -0.6823  0.2358  1.0464
10243WAT    EPW41680   1.348   3.104   7.513 -0.0578 -0.0278  0.5793
10244WAT      O41681   1.008   1.834   3.296  0.0956  0.0874 -0.0202
10244WAT     H141682   1.083   1.791   3.298  0.5586  0.6505 -2.1845
10244WAT     H241683   1.027   1.912   3.330  0.4448  0.1500 -0.3577
10244WAT    EPW41684   1.022   1.839   3.301 -0.2277 -0.1718  0.5155
10245WAT      O41685   1.933   2.304   7.295  0.8824  0.4031  0.0733
10245WAT     H141686   1.926   2.235   7.349  2.2985 -0.0398 -0.2776
10245WAT     H241687   1.999   2.282   7.242  0.9691  1.7920 -0.4274
10245WAT    EPW41688   1.942   2.290   7.295 -0.1580  0.0201 -0.0473
10246WAT      O41689   0.805   5.774   3.377  0.1982 -0.0820 -0.8204
10246WAT     H141690   0.834   5.767   3.295  0.4543 -1.0476 -0.6575
10246WAT     H241691   0.848   5.843   3.408 -0.3404  0.6625 -1.6695
10246WAT    EPW41692   0.815   5.784   3.369  0.3419  0.0738  0.0132
10247WAT      O41693   5.973   0.565   1.812  0.0741  0.0996  0.1826
10247WAT     H141694   6.016   0.621   1.863 -0.2525  0.9169 -0.4246
10247WAT     H241695   5.953   0.499   1.866  1.4050  0.0536  0.6518
10247WAT    EPW41696   5.977   0.564   1.827  0.4625 -0.3878  0.3661
10248WAT      O41697   4.016   2.042   3.142 -0.4171 -0.1852 -0.0238
10248WAT     H141698   4.062   2.068   3.073  1.3442  2.1877  1.8244
10248WAT     H241699   3.933   2.057   3.119  0.1418  0.9478 -1.4514
10248WAT    EPW41700   4.010   2.048   3.129 -0.2074  0.1046  0.2050
10249WAT      O41701   1.572   7.304   3.496  0.1487 -0.1596 -0.2849
10249WAT     H141702   1.617   7.244   3.540  0.8224  1.0994  0.8147
10249WAT     H241703   1.506   7.259   3.461  0.1863 -1.3998  1.1419
10249WAT    EPW41704   1.569   7.289   3.497 -0.2889  0.2534  0.0724
10250WAT      O41705   1.871   6.125   4.508  0.1136 -0.5136 -0.6855
10250WAT     H141706   1.800   6.096   4.466 -2.6666  2.5985  1.3535
10250WAT     H241707   1.902   6.054   4.547 -2.3130 -1.9356 -1.1185
10250WAT    EPW41708   1.865   6.111   4.507 -0.4313  0.0499 -0.3017
10251WAT      O41709   5.999   7.069   4.220  0.3443 -0.2295  0.7465
10251WAT     H141710   5.925   7.052   4.177  1.0244  1.8067 -1.3955
10251WAT     H241711   5.977   7.056   4.304 -2.0603 -0.8833  0.0951
10251WAT    EPW41712   5.985   7.064   4.226  0.4035 -0.2464 -0.2824
10252WAT      O41713   0.606   6.089   2.155  0.2400 -0.2368 -0.1456
10252WAT     H141714   0.543   6.089   2.216 -1.4671  1.8036 -1.7190
10252WAT     H241715   0.598   6.011   2.117 -0.7740 -0.3555  0.2749
10252WAT    EPW41716   0.595   6.077   2.158 -0.5013  0.4228 -0.2300
10253WAT      O41717   6.217   2.431   5.009 -0.4965 -0.7484  0.2911
10253WAT     H141718   6.227   2.517   5.015  0.2606 -0.8072 -0.0307
10253WAT     H241719   6.268   2.409   4.942 -0.5258 -1.4688  0.4978
10253WAT    EPW41720   6.226   2.440   5.000  0.5297  0.8245 -0.0043
10254WAT      O41721   0.251   0.667   5.032  0.3744  0.2177 -0.4289
10254WAT     H141722   0.165   0.652   5.032  0.2493  0.6238  1.3463
10254WAT     H241723   0.284   0.596   5.070  0.9970 -0.4931 -2.2051
10254WAT    EPW41724   0.243   0.655   5.038 -0.6157  0.4109  0.2903
10255WAT      O41725   2.987   2.596   0.882  0.2559 -0.3986  0.0267
10255WAT     H141726   3.050   2.584   0.941  1.8434  0.1172 -1.4740
10255WAT     H241727   2.964   2.679   0.892  0.6630 -0.2565 -0.1880
10255WAT    EPW41728   2.993   2.606   0.892  0.3611  0.3772  0.0329
10256WAT      O41729   3.564   1.779   1.158 -0.2220 -0.0076 -0.4046
10256WAT     H141730   3.508   1.843   1.137  0.6454  0.3571 -1.6738
10256WAT     H241731   3.516   1.727   1.210 -1.0343  1.4960  0.4312
10256WAT    EPW41732   3.549   1.780   1.163 -0.9344  0.2454 -0.0134
10257WAT      O41733   2.791   6.082   3.711 -0.0448  0.2590  0.0451
10257WAT     H141734   2.868   6.101   3.746 -0.0848  0.1717  0.1835
10257WAT     H241735   2.805   6.009   3.665 -0.4298 -0.8084  1.5281
10257WAT    EPW41736   2.804   6.074   3.710  0.3522  0.2170 -0.3912
10258WAT      O41737   6.506   1.191   7.416 -0.4626  0.1229 -0.3350
10258WAT     H141738   6.486   1.240   7.485  0.7162 -0.0931  0.1822
10258WAT     H241739   6.471   1.235   7.349  0.4146  1.6234  0.1351
10258WAT    EPW41740   6.498   1.205   7.416 -0.6704 -0.2726  0.5531
10259WAT      O41741   2.560   2.396   2.188 -0.1468 -0.4503 -0.4712
10259WAT     H141742   2.645   2.414   2.198 -0.1856  1.1296 -2.2925
10259WAT     H241743   2.560   2.323   2.140  0.2712  0.3986 -1.8273
10259WAT    EPW41744   2.572   2.388   2.182 -0.6430  0.2822  0.1253
10260WAT      O41745   4.950   6.841   2.605 -0.7178 -0.1807 -0.5770
10260WAT     H141746   4.945   6.755   2.621  0.7600  0.0479  1.4300
10260WAT     H241747   4.867   6.864   2.591 -1.2432 -1.7747 -0.2509
10260WAT    EPW41748   4.937   6.832   2.605 -0.3884  0.3706 -0.1206
10261WAT      O41749   7.269   0.376   4.538 -0.1081 -0.7152  0.2499
10261WAT     H141750   7.200   0.383   4.485 -0.5066  1.6143  0.9794
10261WAT     H241751   7.301   0.296   4.520 -3.1917 -2.0593  0.1970
10261WAT    EPW41752   7.264   0.365   4.527 -0.1960 -0.7271 -0.2210
10262WAT      O41753   6.090   1.701   0.094  0.3960 -0.0707 -0.0278
10262WAT     H141754   6.120   1.661   0.022  2.3351 -0.0855  0.7225
10262WAT     H241755   6.132   1.661   0.159 -2.1440 -0.8386  1.2929
10262WAT    EPW41756   6.101   1.689   0.093 -0.3393  0.5190 -0.9193
10263WAT      O41757   1.846   4.290   4.224  0.5893  0.0934 -0.5889
10263WAT     H141758   1.878   4.369   4.204  0.0259 -0.2113 -2.9058
10263WAT     H241759   1.808   4.302   4.302  0.7142  2.0380 -0.7903
10263WAT    EPW41760   1.845   4.303   4.233 -0.6302  0.4536  0.5258
10264WAT      O41761   2.707   5.986   2.820  0.2335 -0.2523 -0.4909
10264WAT     H141762   2.739   6.062   2.792  1.5082  0.2760  2.0634
10264WAT     H241763   2.650   6.011   2.882  1.6143 -1.3072  1.3048
10264WAT    EPW41764   2.703   6.001   2.825  0.4725  0.2027  0.2454
10265WAT      O41765   1.085   1.275   7.115 -0.5229 -0.0395 -0.1195
10265WAT     H141766   1.128   1.351   7.114 -1.0074  0.2612 -2.0272
10265WAT     H241767   1.049   1.273   7.195 -2.3800  2.8947 -0.7078
10265WAT    EPW41768   1.086   1.286   7.127 -0.6868 -0.3396  0.0032
10266WAT      O41769   2.351   1.497   4.380  0.0970  0.3651  0.0811
10266WAT     H141770   2.343   1.533   4.301 -0.2172  2.0929  0.8512
10266WAT     H241771   2.289   1.537   4.427 -0.0523 -0.9906  1.0870
10266WAT    EPW41772   2.341   1.508   4.376 -0.2957  0.2247  0.1327
10267WAT      O41773   1.733   1.006   4.039 -0.6017 -0.0204  0.2831
10267WAT     H141774   1.688   0.970   4.104  0.8838 -3.1913 -0.2520
10267WAT     H241775   1.712   1.090   4.043 -2.2340 -0.4522  3.4482
10267WAT    EPW41776   1.723   1.013   4.049  0.2690 -0.1371  0.9585
10268WAT      O41777   2.337   6.106   7.357  0.2032  0.0150  1.0151
10268WAT     H141778   2.276   6.099   7.295  1.3035 -1.8436  0.0553
10268WAT     H241779   2.398   6.157   7.322  1.1127 -1.5326  0.2603
10268WAT    EPW41780   2.337   6.112   7.343  0.4358  0.0989 -0.5767
10269WAT      O41781   1.358   5.699   4.330 -0.0580 -0.1843 -0.3821
10269WAT     H141782   1.318   5.757   4.381 -0.5019 -1.1233  0.3651
10269WAT     H241783   1.307   5.629   4.335  0.0057 -0.3803 -1.9615
10269WAT    EPW41784   1.345   5.697   4.339  0.8282  0.1588 -0.2738
10270WAT      O41785   6.737   0.802   5.491  0.3935 -0.0661  0.1434
10270WAT     H141786   6.805   0.800   5.546  0.1398 -1.2047  0.4522
10270WAT     H241787   6.671   0.828   5.542  0.4728  0.4378 -0.0093
10270WAT    EPW41788   6.737   0.806   5.507  0.1698  0.7450  0.1530
10271WAT      O41789   3.794   5.112   2.690  0.4450  0.7067 -0.0877
10271WAT     H141790   3.836   5.084   2.762 -2.0274  0.9125  1.5800
10271WAT     H241791   3.827   5.192   2.677  0.0485  1.1944  1.6583
10271WAT    EPW41792   3.805   5.120   2.699 -0.0297 -0.3377 -0.3273
10272WAT      O41793   7.347   5.550   0.314 -0.4134 -0.3266  0.3649
10272WAT     H141794   7.361   5.464   0.304 -1.1005 -0.3437 -0.5997
10272WAT     H241795   7.405   5.586   0.261  1.7713 -0.0369  2.7726
10272WAT    EPW41796   7.357   5.542   0.305  0.2684 -0.1603 -0.1871
10273WAT      O41797   0.789   7.063   0.186  0.2258 -0.1013  0.2267
10273WAT     H141798   0.813   6.980   0.197 -2.0985 -0.8121  0.5099
10273WAT     H241799   0.772   7.068   0.101 -0.3916 -0.1644  0.3410
10273WAT    EPW41800   0.790   7.051   0.175 -0.8195 -0.2058 -0.5146
10274WAT      O41801   2.947   2.948   6.326  0.6332 -0.8470 -0.2359
10274WAT     H141802   2.989   2.996   6.386  0.5739 -1.5067  0.3503
10274WAT     H241803   2.919   2.879   6.372  1.5592 -1.9369 -1.2645
10274WAT    EPW41804   2.949   2.945   6.342  0.1248  0.2987  0.3827
10275WAT      O41805   6.111   2.628   1.710 -0.1708  0.3324 -0.5972
10275WAT     H141806   6.065   2.658   1.642 -0.3081  1.8865  0.1324
10275WAT     H241807   6.054   2.580   1.754 -0.6623  0.9546 -0.5421
10275WAT    EPW41808   6.096   2.626   1.707  0.1645  0.0463 -0.1473
10276WAT      O41809   1.326   3.613   4.352  0.2937 -0.2190  0.0042
10276WAT     H141810   1.290   3.663   4.290 -0.3419  1.3552  1.5541
10276WAT     H241811   1.257   3.574   4.390  0.5086  0.1530  0.7954
10276WAT    EPW41812   1.310   3.614   4.348  0.0253 -0.0909 -0.3517
10277WAT      O41813   2.800   6.726   0.993  0.2587 -0.0943 -0.0696
10277WAT     H141814   2.881   6.709   0.965  1.0867  0.7875  1.5893
10277WAT     H241815   2.802   6.700   1.076 -1.2134 -0.1666 -0.0451
10277WAT    EPW41816   2.812   6.720   1.001 -0.1603  0.1284  0.0047
10278WAT      O41817   1.659   0.056   5.899 -0.5131 -0.2893 -0.1592
10278WAT     H141818   1.618   0.092   5.831 -1.1687 -0.4260  0.1596
10278WAT     H241819   1.689   0.124   5.944 -2.1505 -0.1005  0.6935
10278WAT    EPW41820   1.658   0.071   5.895  0.0363  0.0103  0.5929
10279WAT      O41821   7.382   0.126   4.400  0.8591 -0.5334 -0.0194
10279WAT     H141822   7.391   0.057   4.452  0.6132 -0.3401  0.2770
10279WAT     H241823   7.464   0.145   4.378  1.0672  0.0840  1.2105
10279WAT    EPW41824   7.396   0.119   4.404 -0.4176 -0.4078  0.6533
10280WAT      O41825   6.085   0.390   5.909  0.0514  0.4222 -0.0833
10280WAT     H141826   6.072   0.430   5.832  0.1733  1.6114  0.4959
10280WAT     H241827   6.091   0.456   5.966 -1.7138 -0.4681  1.2330
10280WAT    EPW41828   6.084   0.406   5.906  0.0229  0.1333 -0.9013
10281WAT      O41829   7.434   7.266   0.279  0.3599 -0.1027  0.1907
10281WAT     H141830   7.500   7.252   0.334 -1.8892 -2.6570  2.4977
10281WAT     H241831   7.426   7.191   0.235 -1.0278  0.1247 -0.0083
10281WAT    EPW41832   7.443   7.253   0.280 -0.3045  0.0013 -0.2969
10282WAT      O41833   4.688   2.836   1.087  0.2646 -0.4849 -0.2721
10282WAT     H141834   4.703   2.751   1.101  0.1682 -0.2714  1.3692
10282WAT     H241835   4.736   2.875   1.149 -0.7301  0.5834 -0.1432
10282WAT    EPW41836   4.697   2.829   1.098  0.4162  0.2425 -1.2202
10283WAT      O41837   3.138   1.129   4.381 -0.6252 -0.0230  0.5994
10283WAT     H141838   3.141   1.197   4.326  0.4818 -0.4809  0.0481
10283WAT     H241839   3.211   1.139   4.429  2.3030 -3.2424 -2.5923
10283WAT    EPW41840   3.149   1.140   4.380  0.0440 -0.0553 -0.1150
10284WAT      O41841   3.701   1.807   2.051 -0.7762  0.1399  0.3042
10284WAT     H141842   3.717   1.748   2.113 -0.8319 -2.2285 -1.7700
10284WAT     H241843   3.762   1.868   2.064  1.3166 -1.9167  0.7587
10284WAT    EPW41844   3.712   1.807   2.062 -0.2448 -0.3112  0.2803
10285WAT      O41845   6.745   4.488   2.737  0.1359  0.0362 -0.0190
10285WAT     H141846   6.728   4.412   2.699 -0.2617  0.6971 -1.2511
10285WAT     H241847   6.799   4.468   2.802  1.4956 -1.0653 -1.4258
10285WAT    EPW41848   6.750   4.474   2.741  0.4378 -0.1804  0.1226
10286WAT      O41849   0.559   2.229   1.659 -0.3889 -0.0419 -0.2016
10286WAT     H141850   0.582   2.247   1.741  2.0387 -0.7928 -0.6367
10286WAT     H241851   0.514   2.154   1.667  0.5280 -0.5530  0.3911
10286WAT    EPW41852   0.556   2.221   1.672 -0.0666  0.2254  0.1349
10287WAT      O41853   4.643   1.886   3.730 -0.2536 -0.7260  0.0162
10287WAT     H141854   4.711   1.850   3.688 -1.0741 -1.0907 -1.0238
10287WAT     H241855   4.585   1.902   3.667 -0.5131  1.0928  0.6523
10287WAT    EPW41856   4.645   1.883   3.715 -0.3998 -0.4632 -0.3615
10288WAT      O41857   6.627   5.957   2.836  0.2950  0.3042  0.4550
10288WAT     H141858   6.689   5.997   2.883 -0.2683  1.7056  0.0402
10288WAT     H241859   6.657   5.960   2.755 -0.9905  2.4826 -0.0167
10288WAT    EPW41860   6.640   5.964   2.831  0.6880 -0.0367  0.5437
10289WAT      O41861   3.168   3.451   7.042  0.3510 -0.7030  0.0488
10289WAT     H141862   3.171   3.509   7.107 -1.4427 -0.0082 -0.4250
10289WAT     H241863   3.251   3.442   7.018  1.1350 -1.3861  2.7452
10289WAT    EPW41864   3.181   3.458   7.048  0.5973  0.3901 -0.3299
10290WAT      O41865   0.690   3.041   1.430 -0.0554  0.3079 -0.2876
10290WAT     H141866   0.603   3.039   1.438 -0.1502 -0.1146 -1.3144
10290WAT     H241867   0.711   2.959   1.409  0.5001  0.5997 -0.9118
10290WAT    EPW41868   0.681   3.028   1.428 -0.3454  0.6753 -0.1310
10291WAT      O41869   6.035   5.191   5.769  0.0854 -0.4975 -0.6738
10291WAT     H141870   5.996   5.198   5.847 -2.6087  1.0453 -2.0337
10291WAT     H241871   6.047   5.105   5.760  2.9703 -0.6246  2.4519
10291WAT    EPW41872   6.031   5.179   5.779 -0.9789 -0.9472  0.3394
10292WAT      O41873   4.782   0.748   6.651  0.3438  0.1623  0.3574
10292WAT     H141874   4.724   0.793   6.699 -1.5856 -1.6315 -0.1755
10292WAT     H241875   4.824   0.699   6.710  1.4085  1.4599  0.7433
10292WAT    EPW41876   4.780   0.748   6.667 -0.1005  0.5275 -0.0042
10293WAT      O41877   3.093   6.512   7.359  0.4509  0.2829 -0.1010
10293WAT     H141878   3.083   6.594   7.385 -1.0240 -0.0616  0.4750
10293WAT     H241879   3.012   6.483   7.349  0.8072 -1.9415  2.4308
10293WAT    EPW41880   3.080   6.520   7.362 -0.1749 -0.5804 -0.1928
10294WAT      O41881   6.862   2.918   6.803 -0.0428 -0.0185  0.3563
10294WAT     H141882   6.887   2.939   6.884 -1.9429  0.3716  0.9073
10294WAT     H241883   6.812   2.986   6.779 -1.0000 -0.9650 -0.4200
10294WAT    EPW41884   6.858   2.931   6.811 -0.9129 -0.5337  0.0522
10295WAT      O41885   4.888   6.527   5.058 -0.1313  0.4326  0.0348
10295WAT     H141886   4.853   6.484   4.991 -1.9945  1.1209  0.5046
10295WAT     H241887   4.917   6.601   5.022  0.5805 -0.0106 -0.3112
10295WAT    EPW41888   4.887   6.532   5.043 -0.1341  0.3072 -0.0682
10296WAT      O41889   2.139   3.637   6.140  0.3075  0.1737  0.0663
10296WAT     H141890   2.117   3.618   6.057 -0.6397  0.1676  0.3002
10296WAT     H241891   2.079   3.696   6.163 -0.4216 -0.9486  1.2287
10296WAT    EPW41892   2.127   3.643   6.131 -0.6165 -0.6936 -0.7755
10297WAT      O41893   1.567   4.521   5.584 -0.5279  0.1776  0.0594
10297WAT     H141894   1.561   4.441   5.550 -0.4458  0.5877 -0.9530
10297WAT     H241895   1.484   4.543   5.599 -0.7826  0.8174 -1.9242
10297WAT    EPW41896   1.554   4.513   5.581  0.1027  0.1305 -0.0749
10298WAT      O41897   4.928   3.333   2.626 -0.0020  0.0355  0.6997
10298WAT     H141898   4.893   3.401   2.585 -0.4595 -0.1227  0.8214
10298WAT     H241899   4.966   3.287   2.563 -1.7914 -0.8880  0.2310
10298WAT    EPW41900   4.929   3.337   2.611 -0.0343 -0.3791 -0.0033
10299WAT      O41901   0.775   6.846   3.741  0.5117 -0.3071  0.4063
10299WAT     H141902   0.726   6.799   3.795  0.9487  0.3506  1.3912
10299WAT     H241903   0.819   6.900   3.793  1.0934  0.2184 -0.5820
10299WAT    EPW41904   0.775   6.847   3.756  0.2780 -0.5662 -0.3174
10300WAT      O41905   4.414   2.223   3.594  0.2918  0.5818  0.1607
10300WAT     H141906   4.366   2.259   3.658  0.7121  1.7556 -0.1649
10300WAT     H241907   4.451   2.292   3.555  0.0400 -0.0923 -1.3576
10300WAT    EPW41908   4.412   2.239   3.597  0.0915 -0.3660  0.0980
10301WAT      O41909   6.130   4.725   3.058  0.3623 -0.2139  0.3693
10301WAT     H141910   6.177   4.798   3.056  1.3943 -0.7969  1.8553
10301WAT     H241911   6.137   4.698   3.140 -2.2725 -0.5693  0.5592
10301WAT    EPW41912   6.138   4.732   3.070 -0.0480 -0.4500  0.3061
10302WAT      O41913   4.319   4.470   1.218  0.1348  0.3167 -0.4322
10302WAT     H141914   4.359   4.424   1.280  0.3079  1.0882  0.0448
10302WAT     H241915   4.252   4.419   1.194  0.0817 -0.0074  0.3736
10302WAT    EPW41916   4.315   4.456   1.223 -0.2874 -0.0197  0.3516
10303WAT      O41917   4.701   2.473   6.701  0.1300  0.5298 -0.4309
10303WAT     H141918   4.757   2.407   6.712 -2.3709 -2.0060 -1.3227
10303WAT     H241919   4.657   2.476   6.776 -0.2907  0.5806 -0.6713
10303WAT    EPW41920   4.703   2.464   6.714  0.0686  0.3609  0.0089
10304WAT      O41921   6.100   1.753   4.482  0.6149 -0.5397 -0.6967
10304WAT     H141922   6.101   1.776   4.398  2.1633  2.5800  0.0270
10304WAT     H241923   6.015   1.752   4.502  0.2975  0.4226 -1.8925
10304WAT    EPW41924   6.087   1.756   4.472 -0.4115 -0.8167  0.9589
10305WAT      O41925   4.336   3.674   2.653 -0.0029 -0.4803 -0.1660
10305WAT     H141926   4.421   3.662   2.668  0.5358  1.8714 -0.8461
10305WAT     H241927   4.300   3.597   2.673  2.0904 -1.1084  1.5036
10305WAT    EPW41928   4.343   3.661   2.658 -0.4897  0.2784  0.3797
10306WAT      O41929   3.698   4.195   3.630  0.0973 -0.3364  0.3089
10306WAT     H141930   3.666   4.151   3.562 -1.8256 -1.9395  2.1265
10306WAT     H241931   3.780   4.166   3.636 -0.3412 -1.7574 -0.0981
10306WAT    EPW41932   3.706   4.184   3.621  0.1697 -0.2922  0.6019
10307WAT      O41933   6.782   0.850   3.496 -0.4715  0.0595  0.2027
10307WAT     H141934   6.839   0.909   3.526  0.2631 -0.3075 -0.4457
10307WAT     H241935   6.780   0.789   3.558  0.0676 -0.0691  0.0927
10307WAT    EPW41936   6.790   0.850   3.509  0.3976 -0.5362  0.5288
10308WAT      O41937   6.461   6.132   7.357 -0.0490 -0.3737 -0.3762
10308WAT     H141938   6.481   6.161   7.437  0.4616 -2.4802  0.3098
10308WAT     H241939   6.474   6.202   7.306  1.3470  0.5356  1.1350
10308WAT    EPW41940   6.466   6.147   7.361  0.3132  0.2436  0.5825
10309WAT      O41941   1.550   4.215   0.850  0.9392  0.1505 -0.2993
10309WAT     H141942   1.602   4.235   0.918 -2.5830  0.2183  2.6580
10309WAT     H241943   1.524   4.293   0.821  1.1306  0.0761 -0.6822
10309WAT    EPW41944   1.554   4.229   0.856 -0.0027 -0.3409 -0.3690
10310WAT      O41945   6.329   5.292   2.796 -0.5771  0.2273 -0.7637
10310WAT     H141946   6.341   5.238   2.729  1.0090  0.3520 -0.6173
10310WAT     H241947   6.364   5.367   2.769 -0.2488  0.3813  0.0549
10310WAT    EPW41948   6.336   5.295   2.782  0.2255 -0.4266 -0.5231
10311WAT      O41949   7.321   7.285   7.506  0.1098 -0.2160 -0.2811
10311WAT     H141950   7.268   7.330   7.453 -0.0466 -2.7020 -2.4266
10311WAT     H241951   7.272   7.218   7.532  1.5422 -1.4866 -0.7029
10311WAT    EPW41952   7.306   7.282   7.502 -0.0042  0.1479 -0.4234
10312WAT      O41953   3.713   2.384   1.249 -0.2635  0.0689 -0.1300
10312WAT     H141954   3.725   2.439   1.182 -1.9234 -0.8244 -1.2420
10312WAT     H241955   3.746   2.309   1.220 -1.3408 -0.4249 -0.1469
10312WAT    EPW41956   3.720   2.381   1.234 -0.5530 -0.4998  0.0210
10313WAT      O41957   7.374   1.614   7.093 -0.2222  0.5502 -0.0532
10313WAT     H141958   7.425   1.618   7.022  0.6091  2.0109  0.5890
10313WAT     H241959   7.406   1.547   7.138 -0.8112 -0.4476 -1.0596
10313WAT    EPW41960   7.386   1.604   7.089 -0.4887  0.1039  0.0273
10314WAT      O41961   1.890   5.876   5.729  0.5214  0.5995 -0.0957
10314WAT     H141962   1.849   5.851   5.801  0.5910 -1.2299 -0.6329
10314WAT     H241963   1.880   5.963   5.728 -3.0423  0.3281 -0.0359
10314WAT    EPW41964   1.883   5.885   5.740  0.1710 -0.0601 -0.1201
10315WAT      O41965   0.949   5.317   4.308  1.0137 -0.2069 -0.7129
10315WAT     H141966   0.866   5.336   4.325  1.4124  1.6825 -0.6277
10315WAT     H241967   0.948   5.288   4.226  0.2686 -0.2095 -0.7071
10315WAT    EPW41968   0.937   5.316   4.298 -0.0669 -0.1374 -0.5411
10316WAT      O41969   0.979   3.696   1.166 -0.0824  0.1309 -0.2154
10316WAT     H141970   0.898   3.705   1.133  0.5551  1.5633 -1.4798
10316WAT     H241971   0.989   3.609   1.170 -1.4522 -0.0747 -0.6087
10316WAT    EPW41972   0.968   3.684   1.162  0.5274 -0.0097  0.3775
10317WAT      O41973   2.354   6.519   5.796 -0.1053  0.3708 -0.1444
10317WAT     H141974   2.368   6.552   5.716 -1.3930  0.4586 -0.3518
10317WAT     H241975   2.304   6.579   5.835 -2.6557 -1.2848 -0.5858
10317WAT    EPW41976   2.349   6.532   5.790 -0.7483  0.2858 -0.0183
10318WAT      O41977   1.906   3.678   7.157  0.5873 -0.1843  0.7567
10318WAT     H141978   1.897   3.732   7.225  0.9570  1.9558 -0.8115
10318WAT     H241979   1.838   3.698   7.106  1.4326 -0.3048 -0.4467
10318WAT    EPW41980   1.894   3.689   7.160  0.2804  0.0140  0.1200
10319WAT      O41981   3.894   1.249   0.740  0.3105 -0.0919 -0.6421
10319WAT     H141982   3.827   1.302   0.755  1.1146  0.6400  0.5607
10319WAT     H241983   3.961   1.290   0.778  1.1689 -1.4576 -0.6286
10319WAT    EPW41984   3.894   1.263   0.748  0.2666 -0.2985  0.2579
10320WAT      O41985   7.090   0.042   5.059  0.3375  0.7627 -0.5159
10320WAT     H141986   7.078  -0.025   5.114 -1.8361 -1.3654 -3.2698
10320WAT     H241987   7.173   0.064   5.071  0.6950 -1.3742  1.6685
10320WAT    EPW41988   7.101   0.035   5.069 -0.1825  0.4012 -0.7074
10321WAT      O41989   5.490   3.895   6.808 -0.0146  0.0876  0.0346
10321WAT     H141990   5.477   3.954   6.871 -3.6168 -0.6450  0.2129
10321WAT     H241991   5.452   3.932   6.738  2.2456  0.0774 -1.2923
10321WAT    EPW41992   5.483   3.909   6.807  0.2110 -0.0317  0.3532
10322WAT      O41993   0.865   2.417   4.032 -0.2763 -0.2688 -0.3229
10322WAT     H141994   0.921   2.453   3.975 -1.1689 -1.2534 -1.9113
10322WAT     H241995   0.915   2.360   4.075  0.6916  1.3517  0.8018
10322WAT    EPW41996   0.881   2.414   4.030 -0.5355  0.7335  0.0043
10323WAT      O41997   6.181   3.445   2.228  0.4726  0.1435 -0.1618
10323WAT     H141998   6.153   3.493   2.295 -2.3210 -1.7982  0.2719
10323WAT     H241999   6.149   3.487   2.158 -0.5731 -0.1905  0.0981
10323WAT    EPW42000   6.172   3.458   2.228 -0.7726 -0.3853  1.1662
10324WAT      O42001   6.951   4.763   1.048 -0.2436 -0.3913 -1.1089
10324WAT     H142002   6.901   4.806   0.991  0.6818  2.1200 -0.1506
10324WAT     H242003   6.894   4.734   1.107 -0.8438  0.0807 -1.4432
10324WAT    EPW42004   6.935   4.765   1.048 -0.0686 -0.1464 -0.1722
10325WAT      O42005   1.656   0.404   4.681 -0.0524  0.1359 -0.2817
10325WAT     H142006   1.607   0.376   4.748  0.7363  0.5602  0.4985
10325WAT     H242007   1.643   0.344   4.620 -0.5986 -0.4051  0.3445
10325WAT    EPW42008   1.647   0.391   4.682  0.2459  1.2581 -0.0036
10326WAT      O42009   5.090   4.790   6.511  0.0306 -0.2066 -0.2103
10326WAT     H142010   5.094   4.803   6.424 -0.6521 -1.6558 -0.4881
10326WAT     H242011   5.115   4.707   6.520  2.1735  0.5083  1.2274
10326WAT    EPW42012   5.094   4.779   6.499 -0.0187  0.4629  0.1794
10327WAT      O42013   6.054   4.684   4.668  0.3640 -0.3581  0.1000
10327WAT     H142014   5.981   4.709   4.627  2.5892  2.3885 -2.7858
10327WAT     H242015   6.061   4.741   4.734  0.8768  0.8349 -0.9375
10327WAT    EPW42016   6.044   4.696   4.671 -0.0688 -0.6750 -0.2588
10328WAT      O42017   1.302   0.320   0.446  0.2091  0.1510 -0.1793
10328WAT     H142018   1.226   0.285   0.468 -0.1357  0.7167 -0.4574
10328WAT     H242019   1.335   0.346   0.523  0.6060 -1.0146  0.0701
10328WAT    EPW42020   1.296   0.319   0.461  0.2446  0.7928  0.1415
10329WAT      O42021   4.054   4.578   0.687 -0.7532 -0.4589 -0.2658
10329WAT     H142022   4.039   4.492   0.697  0.5489 -0.8361 -1.3381
10329WAT     H242023   4.097   4.600   0.760 -0.7982 -0.7967 -0.1360
10329WAT    EPW42024   4.058   4.568   0.699  0.2620  0.0333 -0.1197
10330WAT      O42025   5.493   4.713   2.781 -0.1125  0.0298  0.0108
10330WAT     H142026   5.441   4.770   2.822 -1.4426 -0.8062 -0.4221
10330WAT     H242027   5.546   4.685   2.844 -0.5555  0.4945  0.6098
10330WAT    EPW42028   5.493   4.717   2.796 -0.1771  0.2138  0.0359
10331WAT      O42029   7.246   4.664   2.518  0.3273  0.4269  1.0993
10331WAT     H142030   7.300   4.606   2.552 -0.0171  0.2839  1.4108
10331WAT     H242031   7.220   4.627   2.443  0.2523  0.2651  1.2061
10331WAT    EPW42032   7.250   4.650   2.512  0.2546 -0.2494  0.1402
10332WAT      O42033   2.131   0.150   6.334  0.3790 -0.2313  0.2114
10332WAT     H142034   2.086   0.104   6.275 -0.5661 -0.9997  1.4714
10332WAT     H242035   2.071   0.172   6.393  1.0517  1.6506  0.2444
10332WAT    EPW42036   2.116   0.146   6.334  0.3155 -0.3978 -0.8934
10333WAT      O42037   4.337   3.519   5.493  0.3462 -0.3233  0.2712
10333WAT     H142038   4.268   3.474   5.523 -0.7643  0.1682 -1.4336
10333WAT     H242039   4.310   3.602   5.494  1.0161 -0.0900 -0.1752
10333WAT    EPW42040   4.323   3.525   5.498 -0.3278  0.1889  0.1483
10334WAT      O42041   2.610   3.310   3.555 -0.0293 -0.3245 -0.8795
10334WAT     H142042   2.624   3.395   3.570  0.9787 -0.4088 -1.2505
10334WAT     H242043   2.674   3.289   3.499  0.3143 -1.5568 -0.0518
10334WAT    EPW42044   2.622   3.319   3.549  0.2581  0.2724  0.2402
10335WAT      O42045   2.852   0.980   6.047  0.2100  0.1913 -0.4265
10335WAT     H142046   2.789   0.922   6.034  2.1985 -2.4763  0.8853
10335WAT     H242047   2.871   0.973   6.132  1.2606  2.0242 -0.4307
10335WAT    EPW42048   2.846   0.971   6.058 -0.6557  0.6951  0.4585
10336WAT      O42049   7.386   3.918   4.187  0.6187  0.0999  0.3070
10336WAT     H142050   7.362   3.938   4.269 -1.4710  2.8102 -0.8101
10336WAT     H242051   7.444   3.980   4.167 -0.2234  0.5698 -0.7894
10336WAT    EPW42052   7.391   3.930   4.197 -0.5629  0.1722  0.0621
10337WAT      O42053   4.828   2.214   7.099 -0.7171 -0.0152 -0.0993
10337WAT     H142054   4.884   2.280   7.101 -1.6291  0.8470 -1.4285
10337WAT     H242055   4.752   2.252   7.080 -1.6231 -1.2444  0.8575
10337WAT    EPW42056   4.825   2.229   7.097 -0.4758  0.0499 -0.0005
10338WAT      O42057   4.121   0.637   2.999 -0.9591  0.5266  0.0332
10338WAT     H142058   4.075   0.617   2.927  1.5918 -3.1023 -0.9225
10338WAT     H242059   4.094   0.577   3.057  0.5061  0.1548  0.3574
10338WAT    EPW42060   4.110   0.625   2.997  0.6533  0.4730  0.3193
10339WAT      O42061   0.012   1.178   3.315 -0.6918 -0.0232  0.4140
10339WAT     H142062   0.059   1.133   3.257  0.0447 -1.2922  1.8904
10339WAT     H242063   0.056   1.253   3.324 -1.3473  0.6135 -1.3169
10339WAT    EPW42064   0.026   1.182   3.308 -0.0796  0.6714 -0.3213
10340WAT      O42065   5.039   4.743   6.793  0.2167 -0.5538  0.0249
10340WAT     H142066   5.028   4.757   6.707 -1.5261  2.3864  0.5674
10340WAT     H242067   4.966   4.702   6.817 -0.9807  1.7321  0.5596
10340WAT    EPW42068   5.026   4.739   6.784 -0.6739  0.2002  0.2963
10341WAT      O42069   1.449   5.350   3.980  0.0479 -0.3399 -0.4673
10341WAT     H142070   1.390   5.318   4.035 -0.2692  2.5243  1.0325
10341WAT     H242071   1.403   5.365   3.907 -1.0098  1.3290  0.4911
10341WAT    EPW42072   1.434   5.347   3.977 -0.1931  0.0552 -0.1630
10342WAT      O42073   2.063   1.673   2.136  0.0711 -0.0261  0.6174
10342WAT     H142074   1.995   1.632   2.101  0.4351 -2.3121  2.2881
10342WAT     H242075   2.034   1.695   2.216  1.4092 -1.6986  1.6353
10342WAT    EPW42076   2.049   1.670   2.143 -0.0960 -0.8806  0.0016
10343WAT      O42077   0.610   5.889   7.487  0.0504  0.1812  0.2493
10343WAT     H142078   0.640   5.813   7.518  0.8546  2.1351  5.1808
10343WAT     H242079   0.524   5.878   7.483  0.2311 -1.2574 -0.3436
10343WAT    EPW42080   0.602   5.876   7.491 -0.0880  0.1497 -0.0733
10344WAT      O42081   2.034   3.547   2.729 -0.6182  0.1608 -0.1768
10344WAT     H142082   2.009   3.474   2.688 -0.3346  0.3281 -0.6572
10344WAT     H242083   1.960   3.592   2.737 -0.6438  0.2232 -0.7071
10344WAT    EPW42084   2.019   3.543   2.724 -0.4152 -0.3571  0.6689
10345WAT      O42085   6.135   1.108   1.515  0.6566  0.6898 -0.2134
10345WAT     H142086   6.127   1.171   1.574  1.8529  0.3063  0.3943
10345WAT     H242087   6.144   1.036   1.564 -0.2244  0.1080 -0.8877
10345WAT    EPW42088   6.136   1.107   1.531  0.1093  0.1744  0.4472
10346WAT      O42089   6.435   1.042   4.239 -0.2343  0.1805 -0.3897
10346WAT     H142090   6.513   1.045   4.277 -1.3256  1.0454  2.0211
10346WAT     H242091   6.385   1.000   4.298 -1.9566  1.2308 -1.0170
10346WAT    EPW42092   6.439   1.036   4.253 -0.2963  0.0782 -0.1897
10347WAT      O42093   1.376   2.636   5.247  0.3374 -0.0820 -0.0004
10347WAT     H142094   1.327   2.609   5.179  0.3091 -0.1397  0.0432
10347WAT     H242095   1.454   2.600   5.232  0.3367 -0.0790 -0.0121
10347WAT    EPW42096   1.380   2.627   5.235  0.0886  0.2769 -0.5949
10348WAT      O42097   0.152   6.350   6.770 -0.2576 -0.7614  0.4417
10348WAT     H142098   0.227   6.354   6.726  1.6614 -1.8076  3.2928
10348WAT     H242099   0.151   6.269   6.802 -2.1989 -0.4917  1.2205
10348WAT    EPW42100   0.163   6.338   6.768 -0.6212  0.5634 -0.6027
10349WAT      O42101   1.427   4.394   7.157 -0.3956  0.7313 -0.4154
10349WAT     H142102   1.415   4.316   7.121 -0.1260 -0.4797  1.9782
10349WAT     H242103   1.472   4.438   7.095  0.3780 -1.3357 -1.4048
10349WAT    EPW42104   1.432   4.389   7.142 -0.4842  0.5961  0.8083
10350WAT      O42105   2.770   3.606   2.792  0.0569 -0.4891 -0.2517
10350WAT     H142106   2.783   3.602   2.706  0.0275 -0.0617 -0.2774
10350WAT     H242107   2.759   3.522   2.815  0.8744 -0.6803 -0.5274
10350WAT    EPW42108   2.770   3.593   2.783  0.2604  0.1680 -0.4665
10351WAT      O42109   0.195   7.356   3.603  0.4701 -0.1602  0.6784
10351WAT     H142110   0.226   7.286   3.561 -0.6322  0.5669 -1.5280
10351WAT     H242111   0.258   7.415   3.595 -0.3775  0.5534 -1.7157
10351WAT    EPW42112   0.209   7.354   3.596 -0.3206 -0.1860 -0.6889
10352WAT      O42113   7.175   7.287   6.782  0.2502 -0.1323  0.3616
10352WAT     H142114   7.247   7.314   6.823 -0.3464 -0.3709  1.6150
10352WAT     H242115   7.192   7.203   6.762  0.4641 -0.0706  0.2861
10352WAT    EPW42116   7.188   7.278   6.785  0.0220  0.4883 -0.0722
10353WAT      O42117   3.502   1.303   2.137  0.2872  0.1613  0.3091
10353WAT     H142118   3.585   1.316   2.111  0.7356 -0.4838  1.3346
10353WAT     H242119   3.479   1.381   2.168  0.4669  0.3799 -0.0930
10353WAT    EPW42120   3.511   1.316   2.138 -0.0876 -0.1980  0.1724
10354WAT      O42121   7.561   6.592   3.497  0.0160 -0.0644  0.2782
10354WAT     H142122   7.602   6.515   3.497 -1.1175 -0.7293 -1.5657
10354WAT     H242123   7.597   6.634   3.429 -2.0731 -0.5776 -1.2443
10354WAT    EPW42124   7.573   6.587   3.487 -0.2316  0.3599  0.1100
10355WAT      O42125   5.118   4.985   2.659  0.1725  0.8220 -0.4771
10355WAT     H142126   5.118   5.062   2.618 -0.0475  1.4420  0.6350
10355WAT     H242127   5.157   4.931   2.602  0.7104  1.8446 -1.1130
10355WAT    EPW42128   5.124   4.989   2.645 -0.3667  0.0182 -0.1255
10356WAT      O42129   4.118   2.258   4.232  0.2288  0.0255  0.3067
10356WAT     H142130   4.160   2.182   4.236  1.3475  0.6577  4.0632
10356WAT     H242131   4.175   2.312   4.194  0.9661 -0.1658  1.1302
10356WAT    EPW42132   4.132   2.255   4.227 -0.2562  0.1301  0.2547
10357WAT      O42133   6.783   0.318   1.537 -0.1027 -0.5996 -0.3263
10357WAT     H142134   6.714   0.336   1.486 -0.9941  2.0716  1.6127
10357WAT     H242135   6.835   0.271   1.485 -2.1282 -0.3170 -2.7920
10357WAT    EPW42136   6.781   0.314   1.522  0.6479 -0.0319  0.0768
10358WAT      O42137   2.059   5.757   4.208 -0.6346 -0.0343 -0.4718
10358WAT     H142138   1.993   5.700   4.215  0.7477 -1.9267 -1.6923
10358WAT     H242139   2.060   5.777   4.123 -0.4574  1.0520 -0.2279
10358WAT    EPW42140   2.050   5.751   4.196  0.2117  0.8542  0.6053
10359WAT      O42141   7.372   3.540   6.857  0.3718  0.5024  0.4093
10359WAT     H142142   7.324   3.594   6.907 -2.5694 -1.5631  0.0762
10359WAT     H242143   7.386   3.471   6.909  3.9773  1.3113  0.7978
10359WAT    EPW42144   7.367   3.538   6.872  0.3006 -0.2587 -0.0998
10360WAT      O42145   2.200   4.822   2.740  0.4708  0.1501  0.0895
10360WAT     H142146   2.176   4.800   2.820 -2.2513 -0.3525 -0.7849
10360WAT     H242147   2.201   4.910   2.742 -1.6886  0.2266  0.1975
10360WAT    EPW42148   2.197   4.832   2.752  0.1527  0.3006 -0.2446
10361WAT      O42149   0.725   0.184   1.964  0.3823 -0.1573 -0.2517
10361WAT     H142150   0.685   0.107   1.951  1.6488 -0.8102 -0.4549
10361WAT     H242151   0.742   0.212   1.883  1.2596 -0.4055 -0.1626
10361WAT    EPW42152   0.722   0.176   1.950 -0.2997 -0.6840  0.7016
10362WAT      O42153   2.551   4.656   4.111  0.0982 -0.5219  0.4501
10362WAT     H142154   2.595   4.731   4.097 -0.1107 -0.6996 -1.4887
10362WAT     H242155   2.553   4.647   4.197  0.6950  1.3936  0.6955
10362WAT    EPW42156   2.557   4.666   4.122 -0.4966  0.0763 -0.3734
10363WAT      O42157   3.074   6.919   6.513  0.0664 -0.0578 -0.1611
10363WAT     H142158   3.115   6.927   6.436  1.0257 -2.7693 -0.0667
10363WAT     H242159   3.140   6.918   6.571 -0.5155  0.3163  0.5125
10363WAT    EPW42160   3.090   6.920   6.510  0.1282 -0.2272  0.1919
10364WAT      O42161   5.226   1.782   1.125 -0.5608 -0.3476 -0.2404
10364WAT     H142162   5.273   1.819   1.189 -0.0172  0.4989 -1.1137
10364WAT     H242163   5.166   1.843   1.107 -0.3281 -0.3275 -0.9554
10364WAT    EPW42164   5.224   1.796   1.132 -0.0120  0.5241 -0.8935
10365WAT      O42165   6.819   5.206   0.182 -0.1083 -0.0768 -0.1493
10365WAT     H142166   6.746   5.176   0.219 -0.2345  1.6318  1.0715
10365WAT     H242167   6.812   5.292   0.187  1.5021  0.1583 -1.0279
10365WAT    EPW42168   6.808   5.214   0.188 -0.6839 -0.8129  0.8984
10366WAT      O42169   5.470   4.997   7.103  0.1288 -0.1903 -0.3914
10366WAT     H142170   5.445   5.017   7.185 -0.4856 -0.2447 -0.5593
10366WAT     H242171   5.551   5.029   7.098 -0.2062  0.7391 -0.0927
10366WAT    EPW42172   5.478   5.005   7.115 -0.6143 -0.4334 -0.1286
10367WAT      O42173   2.463   0.236   7.396  0.2490  0.4280  0.0182
10367WAT     H142174   2.507   0.175   7.351  1.1895  0.7189  0.5354
10367WAT     H242175   2.379   0.220   7.375  0.5719 -0.3006 -0.7634
10367WAT    EPW42176   2.457   0.225   7.386  0.0923  0.3745 -0.2643
10368WAT      O42177   3.635   1.800   7.132  0.0043  0.8203  0.4022
10368WAT     H142178   3.619   1.722   7.098  1.5977  0.1112  1.1757
10368WAT     H242179   3.596   1.797   7.210  2.0267 -0.1778  1.4630
10368WAT    EPW42180   3.627   1.788   7.139 -0.2661 -0.0403  0.4345
10369WAT      O42181   1.782   5.792   4.394 -0.0157 -0.2758 -0.2324
10369WAT     H142182   1.815   5.785   4.313  2.4778 -0.5350  0.7266
10369WAT     H242183   1.819   5.725   4.436 -0.3192  0.5616  1.4147
10369WAT    EPW42184   1.792   5.781   4.388 -0.0293  0.7709  0.4633
10370WAT      O42185   2.850   0.467   2.715 -0.2062  0.0816 -0.1866
10370WAT     H142186   2.792   0.405   2.738 -0.3368 -0.1583 -1.1200
10370WAT     H242187   2.927   0.428   2.726 -0.1747  0.4503  1.2095
10370WAT    EPW42188   2.853   0.452   2.720 -0.0120  0.5655 -0.3164
10371WAT      O42189   4.765   5.544   6.687 -0.2071  0.0575  0.0489
10371WAT     H142190   4.773   5.465   6.721  0.9925  0.3745  0.5459
10371WAT     H242191   4.725   5.590   6.750  0.4647  0.2194  0.3592
10371WAT    EPW42192   4.760   5.539   6.701 -0.0662  0.2216 -0.7267
10372WAT      O42193   5.630   5.218   0.334  0.2162 -0.2932 -0.3126
10372WAT     H142194   5.657   5.278   0.276  0.9527  0.2094  0.5173
10372WAT     H242195   5.560   5.183   0.296  0.5880  0.1255 -1.4375
10372WAT    EPW42196   5.624   5.222   0.320 -0.0461 -0.0763 -0.7981
10373WAT      O42197   7.373   6.341   0.507 -0.2729 -0.1457  0.0461
10373WAT     H142198   7.387   6.427   0.512 -0.7980 -0.0165 -0.5429
10373WAT     H242199   7.287   6.334   0.520 -0.1059 -0.6751  0.9893
10373WAT    EPW42200   7.362   6.352   0.510 -0.4077 -0.5251  0.1925
10374WAT      O42201   2.184   4.226   2.218 -0.6535  0.0945 -0.0108
10374WAT     H142202   2.194   4.199   2.300  0.2760  1.0291  0.2042
10374WAT     H242203   2.223   4.163   2.171 -0.1091  0.1629  0.3486
10374WAT    EPW42204   2.191   4.213   2.223 -0.3558  0.0746  0.3464
10375WAT      O42205   3.217   2.710   7.027 -0.5494  0.3203  0.4990
10375WAT     H142206   3.176   2.736   7.099 -0.1513  0.7618  0.5691
10375WAT     H242207   3.187   2.629   7.015 -2.7071  1.1656 -0.3837
10375WAT    EPW42208   3.207   2.702   7.036  0.0634 -1.0054 -0.0849
10376WAT      O42209   1.762   0.710   6.491 -0.7059 -0.2217 -0.6768
10376WAT     H142210   1.718   0.751   6.428 -0.5571  0.3075 -0.4412
10376WAT     H242211   1.712   0.641   6.509 -0.5859 -0.5679 -1.6025
10376WAT    EPW42212   1.748   0.706   6.484 -0.3193  0.1775  0.3187
10377WAT      O42213   0.868   5.867   2.905 -0.2458  0.4342 -0.3810
10377WAT     H142214   0.817   5.824   2.849  0.2854  0.2852 -0.7530
10377WAT     H242215   0.817   5.934   2.931 -1.3847 -0.8506  0.8584
10377WAT    EPW42216   0.853   5.871   2.901  0.1822  1.0393 -0.1981
10378WAT      O42217   5.680   5.419   2.672 -0.3347  0.0179 -0.0854
10378WAT     H142218   5.641   5.381   2.604 -0.0234 -1.8783  0.7272
10378WAT     H242219   5.628   5.398   2.739  0.8260 -0.5652  0.6629
10378WAT    EPW42220   5.666   5.410   2.672  0.5895 -0.1184  0.2666
10379WAT      O42221   2.380   0.383   2.995  0.5574  0.1266 -0.1585
10379WAT     H142222   2.463   0.410   2.989 -0.0675  2.3319  0.3010
10379WAT     H242223   2.387   0.305   3.035  2.3662  0.4450  0.2515
10379WAT    EPW42224   2.394   0.375   3.000 -0.4122  0.1163 -0.0852
10380WAT      O42225   1.939   4.776   4.890 -0.1087  0.1979 -0.5703
10380WAT     H142226   1.933   4.698   4.929 -1.1510  1.1461  1.3167
10380WAT     H242227   1.888   4.767   4.819 -0.0296 -0.8821 -0.5099
10380WAT    EPW42228   1.931   4.763   4.885 -0.3857 -0.5381 -0.6311
10381WAT      O42229   5.177   3.837   7.534  0.4086 -0.3285 -0.0785
10381WAT     H142230   5.208   3.842   7.453  0.4693 -0.2359 -0.0506
10381WAT     H242231   5.107   3.787   7.527  0.9035 -1.0394 -0.0454
10381WAT    EPW42232   5.171   3.830   7.521  0.0686 -0.3305  0.3106
10382WAT      O42233   1.175   5.360   0.280 -0.5963 -0.2058 -0.3746
10382WAT     H142234   1.208   5.306   0.340 -0.6572 -0.3377 -0.4585
10382WAT     H242235   1.106   5.317   0.249  1.6991 -2.1364 -3.5370
10382WAT    EPW42236   1.170   5.345   0.284 -0.1492 -0.1099 -0.5537
10383WAT      O42237   5.091   3.273   0.084 -0.1800 -0.7953 -0.2808
10383WAT     H142238   5.074   3.358   0.082  0.2012 -0.7033  0.1838
10383WAT     H242239   5.027   3.240   0.134  0.4470 -0.5869  0.6668
10383WAT    EPW42240   5.079   3.281   0.091  0.3084  1.1867 -0.0038
10384WAT      O42241   0.917   6.151   3.928  0.4828 -0.1697 -0.2046
10384WAT     H142242   0.967   6.176   3.995  0.4956 -2.1917  0.5875
10384WAT     H242243   0.837   6.148   3.962  0.1538  0.6950 -0.8442
10384WAT    EPW42244   0.913   6.154   3.943  0.4442  0.3660  0.3084
10385WAT      O42245   3.098   0.245   0.309 -0.3769  0.4910  0.1743
10385WAT     H142246   3.174   0.224   0.348 -1.2587 -1.7085  0.8417
10385WAT     H242247   3.124   0.289   0.238  1.4070  1.7658  1.4864
10385WAT    EPW42248   3.113   0.249   0.304  0.2211  0.5324  0.2706
10386WAT      O42249   6.989   3.627   4.788 -0.1901  0.1356 -0.5670
10386WAT     H142250   6.973   3.624   4.702  1.1095 -1.0006 -0.8008
10386WAT     H242251   7.023   3.706   4.800  0.8353 -0.1582 -1.3563
10386WAT    EPW42252   6.991   3.638   4.777 -1.0541  0.4253  0.1604
10387WAT      O42253   0.431   4.861   5.239 -0.0379 -0.4033  0.2821
10387WAT     H142254   0.450   4.899   5.163 -0.1783 -0.3497  0.2739
10387WAT     H242255   0.367   4.806   5.219  1.0785 -1.6649  0.0174
10387WAT    EPW42256   0.424   4.859   5.225 -0.4316 -0.4632  0.0337
10388WAT      O42257   0.798   4.137   5.743 -0.0394  0.4027 -0.3952
10388WAT     H142258   0.803   4.222   5.760  0.5482  0.5221 -1.0926
10388WAT     H242259   0.829   4.131   5.661  0.4845 -0.5441 -0.1472
10388WAT    EPW42260   0.804   4.148   5.733 -0.3509  0.7322 -0.3561
10389WAT      O42261   7.250   0.874   7.484 -0.0709  0.3389 -0.4750
10389WAT     H142262   7.176   0.919   7.475 -0.2554  0.0255 -0.5434
10389WAT     H242263   7.302   0.906   7.422 -0.3318  0.1971 -0.7689
10389WAT    EPW42264   7.247   0.886   7.474  0.0618  0.2496 -0.1042
10390WAT      O42265   2.482   0.070   1.442 -0.7018 -0.3551 -0.0308
10390WAT     H142266   2.456   0.010   1.499  0.1670 -0.6936  0.0295
10390WAT     H242267   2.454   0.040   1.365  2.3194 -2.5234 -0.4804
10390WAT    EPW42268   2.474   0.057   1.439 -0.1795 -0.3140 -0.0545
10391WAT      O42269   3.597   6.554   1.666  0.4011 -0.3357 -0.6683
10391WAT     H142270   3.531   6.597   1.703  0.4542 -0.6030 -0.2574
10391WAT     H242271   3.666   6.578   1.713  0.6415  0.1169 -1.2350
10391WAT    EPW42272   3.597   6.564   1.678  0.8300  0.1924 -0.4230
10392WAT      O42273   0.643   3.863   4.201 -0.4296 -0.0150 -0.0422
10392WAT     H142274   0.725   3.854   4.230 -0.0201 -0.9772 -1.3669
10392WAT     H242275   0.600   3.799   4.242 -0.1610 -0.4975 -0.4983
10392WAT    EPW42276   0.649   3.852   4.211 -0.1036  0.0783 -0.3660
10393WAT      O42277   3.011   0.969   1.701 -0.3173  0.2962  0.8224
10393WAT     H142278   3.002   1.037   1.648 -2.1079  0.1685  0.9297
10393WAT     H242279   3.089   0.983   1.739  0.1892  1.2880 -0.5177
10393WAT    EPW42280   3.021   0.981   1.699 -0.6347  0.3441 -0.7941
10394WAT      O42281   4.804   5.966   4.794 -0.5802 -0.2318 -0.0142
10394WAT     H142282   4.841   6.038   4.828 -2.2626  1.6717 -1.8714
10394WAT     H242283   4.755   5.936   4.860  2.5686 -1.7360  1.8695
10394WAT    EPW42284   4.802   5.972   4.809  0.4144 -0.3663  0.2197
10395WAT      O42285   2.939   4.271   3.994  0.1524  0.5559 -0.9288
10395WAT     H142286   2.928   4.292   3.909 -1.7872 -1.2409 -1.2215
10395WAT     H242287   2.901   4.337   4.036 -1.6776  0.0329 -1.6432
10395WAT    EPW42288   2.932   4.284   3.987  0.2819  0.1879  0.1345
10396WAT      O42289   0.400   1.626   0.678 -0.1255  0.0292 -0.5533
10396WAT     H142290   0.376   1.631   0.595 -1.3496  0.0064 -0.2081
10396WAT     H242291   0.330   1.654   0.722  0.8179  0.9521  0.4316
10396WAT    EPW42292   0.386   1.631   0.672 -0.1283 -0.2647  0.1682
10397WAT      O42293   5.682   6.435   5.000  0.0803  0.3824 -0.6349
10397WAT     H142294   5.633   6.370   4.970 -0.0410  1.6917 -3.5923
10397WAT     H242295   5.626   6.501   5.009  0.5181  0.6132  0.5959
10397WAT    EPW42296   5.667   6.435   4.997  0.7976  0.2513 -0.5506
10398WAT      O42297   3.183   0.161   1.265  0.2231  0.0333 -0.4590
10398WAT     H142298   3.100   0.187   1.255 -0.4626 -2.3823 -2.1118
10398WAT     H242299   3.182   0.080   1.232  2.5950 -1.2575  2.2423
10398WAT    EPW42300   3.170   0.153   1.258 -0.4226 -0.2097  0.0635
10399WAT      O42301   0.435   2.603   2.559 -0.1600 -0.1027 -0.2831
10399WAT     H142302   0.515   2.590   2.527 -0.4267  1.7356 -1.8781
10399WAT     H242303   0.386   2.618   2.488 -1.1535  2.4132  0.8164
10399WAT    EPW42304   0.439   2.603   2.544 -0.2060  0.3929  0.0167
10400WAT      O42305   3.303   4.404   0.157  0.8502 -0.7940 -0.1312
10400WAT     H142306   3.325   4.432   0.237  0.8594  0.5359 -0.5686
10400WAT     H242307   3.377   4.368   0.128  1.1553 -0.3411  0.0691
10400WAT    EPW42308   3.318   4.403   0.165  0.3312 -0.1220  0.0589
10401WAT      O42309   3.071   4.659   2.632  0.2243  0.3212  0.1235
10401WAT     H142310   3.158   4.660   2.628  0.1798  0.2419 -1.9049
10401WAT     H242311   3.050   4.579   2.604 -0.4942 -0.3401  2.3404
10401WAT    EPW42312   3.080   4.647   2.628  0.5400 -1.0125  0.0854
10402WAT      O42313   0.951   0.956   3.599  0.5305  0.1070 -0.1284
10402WAT     H142314   0.978   0.963   3.517 -0.7211 -1.1094 -0.6805
10402WAT     H242315   0.977   1.031   3.635  1.6426  0.3978 -1.4552
10402WAT    EPW42316   0.959   0.968   3.592 -0.6338 -0.3747 -0.4494
10403WAT      O42317   2.483   7.470   1.006 -0.1599  0.2005  0.1038
10403WAT     H142318   2.512   7.491   1.086  1.4040 -0.0315 -0.3654
10403WAT     H242319   2.434   7.399   1.020  0.1399  0.1265  0.8514
10403WAT    EPW42320   2.480   7.463   1.020  0.0005  0.0336 -0.6040
10404WAT      O42321   0.836   2.169   6.687  0.2343  0.8291 -0.3212
10404WAT     H142322   0.846   2.207   6.765  1.7616 -0.1615 -0.0026
10404WAT     H242323   0.914   2.175   6.650 -0.0613 -0.0857 -1.1452
10404WAT    EPW42324   0.849   2.175   6.693 -0.2874 -0.9361  0.3663
10405WAT      O42325   1.471   0.376   3.635 -0.0545 -0.2058 -0.3718
10405WAT     H142326   1.519   0.444   3.608 -0.2858 -0.1360 -0.6135
10405WAT     H242327   1.389   0.406   3.631 -0.1443 -0.4445 -0.3172
10405WAT    EPW42328   1.466   0.390   3.630  0.8321 -0.1523 -0.1546
10406WAT      O42329   1.789   6.484   3.387 -0.3331  0.5260  0.0502
10406WAT     H142330   1.806   6.420   3.330 -1.8535 -0.3381  0.4963
10406WAT     H242331   1.864   6.495   3.429  0.0499 -0.7681 -0.2456
10406WAT    EPW42332   1.803   6.476   3.385  0.3608  0.5147  0.0710
10407WAT      O42333   0.241   7.016   6.422  0.2736  0.2629 -0.8107
10407WAT     H142334   0.303   7.055   6.375  0.6707  0.2711 -0.2929
10407WAT     H242335   0.169   7.029   6.375  0.5320  0.9253 -1.0467
10407WAT    EPW42336   0.240   7.024   6.408  0.3184  0.4899  0.1122
10408WAT      O42337   5.731   6.427   0.503  0.2144  0.2628 -0.0963
10408WAT     H142338   5.656   6.408   0.542  0.8135  0.2251  1.0883
10408WAT     H242339   5.707   6.458   0.425 -0.9332 -1.7747 -0.6132
10408WAT    EPW42340   5.717   6.429   0.497  0.5689  0.2402 -0.1951
10409WAT      O42341   2.248   6.189   2.558 -0.0221 -0.1423 -0.0100
10409WAT     H142342   2.282   6.137   2.497 -1.8162 -1.0777 -0.2665
10409WAT     H242343   2.234   6.136   2.626 -0.0569  0.4366  0.4492
10409WAT    EPW42344   2.251   6.174   2.559  0.4367  0.7393  0.4239
10410WAT      O42345   1.096   4.397   2.917  0.0264  0.2637 -0.8994
10410WAT     H142346   1.139   4.448   2.862  1.2236  0.7177  0.3938
10410WAT     H242347   1.134   4.319   2.908  0.3745  0.3924 -0.5702
10410WAT    EPW42348   1.108   4.393   2.908  0.9284  0.1875  0.1302
10411WAT      O42349   1.483   3.419   6.833  0.2144  0.6341 -0.0933
10411WAT     H142350   1.438   3.434   6.760  1.4054 -0.3366 -1.0726
10411WAT     H242351   1.553   3.470   6.824 -0.6713  2.2529  1.4877
10411WAT    EPW42352   1.487   3.429   6.821 -0.2951 -0.6898  0.1231
10412WAT      O42353   0.596   5.510   0.487 -0.2713  0.4780  0.3234
10412WAT     H142354   0.587   5.544   0.407  2.0667 -3.1107 -1.7254
10412WAT     H242355   0.664   5.553   0.521 -0.1546  0.8292 -0.3458
10412WAT    EPW42356   0.605   5.522   0.480  0.1172 -0.1176  0.2562
10413WAT      O42357   1.183   5.712   2.589  0.4184  0.2918 -0.0827
10413WAT     H142358   1.135   5.720   2.517 -0.3141  1.0352  0.4613
10413WAT     H242359   1.229   5.786   2.592 -0.6578  0.9528  0.9664
10413WAT    EPW42360   1.183   5.724   2.579 -0.2687  0.4763 -0.0707
10414WAT      O42361   2.246   3.711   4.771  0.3426 -0.4553 -0.1263
10414WAT     H142362   2.287   3.713   4.694  1.6303 -1.3909  0.5083
10414WAT     H242363   2.286   3.773   4.817 -0.6393  0.3240 -0.2796
10414WAT    EPW42364   2.258   3.721   4.766  0.0720  0.5082  0.3769
10415WAT      O42365   7.549   5.565   5.314  0.4154 -0.1631  0.4922
10415WAT     H142366   7.616   5.528   5.357  0.7040 -0.8126 -0.4853
10415WAT     H242367   7.585   5.632   5.273 -0.1559  1.4623  2.4684
10415WAT    EPW42368   7.564   5.569   5.314  0.2830 -0.5617 -0.0539
10416WAT      O42369   4.376   1.852   6.510  0.3137  0.5593 -0.0740
10416WAT     H142370   4.339   1.838   6.432  1.2799 -2.0173 -0.1692
10416WAT     H242371   4.308   1.876   6.560 -0.6835  0.2827 -1.2330
10416WAT    EPW42372   4.360   1.853   6.506 -0.4251  0.1959  0.1030
10417WAT      O42373   2.629   5.094   2.229 -0.2233 -0.2119 -0.5668
10417WAT     H142374   2.585   5.165   2.255  1.8371  0.7421  0.6148
10417WAT     H242375   2.569   5.031   2.229 -1.6280  1.0475  0.7461
10417WAT    EPW42376   2.614   5.095   2.233  0.5004  0.4834 -0.5724
10418WAT      O42377   0.893   4.578   6.466 -0.1933  0.2080 -0.1267
10418WAT     H142378   0.974   4.569   6.497  0.5336  3.0586 -0.9247
10418WAT     H242379   0.852   4.623   6.528 -0.5327  0.6065 -0.6311
10418WAT    EPW42380   0.899   4.583   6.480  0.4846  0.0927 -0.2920
10419WAT      O42381   3.865   6.585   6.116  0.2891  0.0990  0.0378
10419WAT     H142382   3.906   6.515   6.083 -0.3248 -1.2841  2.0065
10419WAT     H242383   3.930   6.635   6.146  0.6714 -0.6830  0.5433
10419WAT    EPW42384   3.881   6.582   6.115  0.5031 -0.7634  0.6409
10420WAT      O42385   0.496   3.354   5.018  0.4413 -0.5177  0.1483
10420WAT     H142386   0.449   3.425   5.000 -1.3366 -1.7664 -0.4182
10420WAT     H242387   0.576   3.385   5.033 -0.3644  1.6196  0.3151
10420WAT    EPW42388   0.501   3.369   5.018  0.1915 -0.0753  0.2206
10421WAT      O42389   2.757   1.368   0.018  0.1896  0.2497 -0.1223
10421WAT     H142390   2.834   1.378   0.057  2.2395 -1.9936 -3.1283
10421WAT     H242391   2.734   1.449  -0.003  1.6642  0.9789  0.9054
10421WAT    EPW42392   2.765   1.382   0.021 -0.8340 -0.0041 -0.6118
10422WAT      O42393   0.737   6.977   0.665 -0.1007 -0.4384  0.2699
10422WAT     H142394   0.665   6.938   0.634 -0.8379  0.6280  0.5667
10422WAT     H242395   0.744   7.049   0.617 -0.1658  0.2729  1.2869
10422WAT    EPW42396   0.727   6.981   0.653 -0.0275 -0.1272 -0.5078
10423WAT      O42397   3.195   6.914   4.397  0.1234  0.0698 -0.0260
10423WAT     H142398   3.153   6.899   4.322 -0.0807 -1.5649  0.3872
10423WAT     H242399   3.145   6.874   4.457  1.2290 -0.2132  0.7318
10423WAT    EPW42400   3.181   6.906   4.395  0.1217 -0.0240  0.1092
10424WAT      O42401   0.981   7.591   7.514  0.2971  0.0578 -0.0924
10424WAT     H142402   0.917   7.642   7.542  0.4929  0.8888 -1.0799
10424WAT     H242403   0.964   7.513   7.550  0.4405  0.9814  2.1285
10424WAT    EPW42404   0.969   7.587   7.523  0.6662  0.4214 -0.0790
10425WAT      O42405   0.624   3.547   6.232 -0.4662 -0.0108 -0.5799
10425WAT     H142406   0.663   3.469   6.238  0.1030  0.2120 -1.2415
10425WAT     H242407   0.599   3.564   6.314  1.7688  0.3132  0.0931
10425WAT    EPW42408   0.626   3.538   6.245 -0.0543 -0.3982 -0.0837
10426WAT      O42409   3.623   2.036   6.634  0.3992  0.7517  0.0087
10426WAT     H142410   3.591   1.973   6.582  0.7015  0.2687  0.4005
10426WAT     H242411   3.557   2.091   6.642  0.9556  1.9989 -2.6553
10426WAT    EPW42412   3.609   2.034   6.627 -0.1795  0.1721  0.2642
10427WAT      O42413   6.787   6.462   5.455  0.5164 -0.1090 -0.2388
10427WAT     H142414   6.843   6.489   5.516 -1.2578  0.7035  1.0876
10427WAT     H242415   6.799   6.375   5.453  0.6840 -0.1396  1.1934
10427WAT    EPW42416   6.797   6.453   5.464 -0.2666 -0.6729  0.2381
10428WAT      O42417   2.225   5.984   6.613 -0.4220 -0.4385  1.1178
10428WAT     H142418   2.302   5.987   6.573  0.4354  2.6442  2.6611
10428WAT     H242419   2.183   5.919   6.573  2.3711 -1.2203 -0.8293
10428WAT    EPW42420   2.230   5.975   6.601  0.2952  0.2699  0.1803
10429WAT      O42421   3.857   6.282   3.444  0.0102  0.3925  0.0270
10429WAT     H142422   3.840   6.367   3.433 -0.5315  0.3264  0.2939
10429WAT     H242423   3.917   6.265   3.383  2.2627  1.5968  1.7255
10429WAT    EPW42424   3.863   6.292   3.433 -0.3854  0.0969 -0.2711
10430WAT      O42425   6.961   5.124   5.787 -0.4748 -0.1674  0.3605
10430WAT     H142426   7.013   5.163   5.729  0.8106 -1.6688  0.4353
10430WAT     H242427   7.011   5.116   5.858 -1.2618 -0.4092  0.9094
10430WAT    EPW42428   6.976   5.128   5.789 -0.2281 -0.5330 -0.2268
10431WAT      O42429   7.570   3.028   6.762 -0.4104  0.3681 -0.1022
10431WAT     H142430   7.597   3.104   6.796  0.0600  0.7900 -1.3597
10431WAT     H242431   7.615   3.022   6.687 -2.1611  0.0097 -1.1845
10431WAT    EPW42432   7.581   3.038   6.756 -0.0163 -0.3444 -0.5787
10432WAT      O42433   6.709   6.341   0.533  0.3261  0.3499 -0.3507
10432WAT     H142434   6.750   6.314   0.461 -0.3055 -1.7190  0.0003
10432WAT     H242435   6.697   6.426   0.519  2.8027  0.6220 -1.3820
10432WAT    EPW42436   6.714   6.350   0.521 -0.2116 -0.5864  0.7801
10433WAT      O42437   6.064   4.931   1.009  0.0354  0.1120  0.4054
10433WAT     H142438   5.986   4.916   0.974 -0.6866 -0.1523  2.0055
10433WAT     H242439   6.045   4.973   1.084  1.5133  1.2356  0.2078
10433WAT    EPW42440   6.050   4.935   1.015 -0.2368 -0.5634 -0.0265
10434WAT      O42441   1.631   3.655   1.977  0.1489  0.3715 -0.3935
10434WAT     H142442   1.625   3.636   2.062  0.4736  0.5895 -0.3171
10434WAT     H242443   1.548   3.657   1.950  0.0606 -0.0309 -0.1554
10434WAT    EPW42444   1.618   3.653   1.986 -0.1138  0.5119 -0.8760
10435WAT      O42445   6.297   0.874   6.131 -0.2448  0.2948  0.0056
10435WAT     H142446   6.336   0.796   6.137  0.2630  0.4572 -0.9987
10435WAT     H242447   6.316   0.913   6.207  0.7534  0.0070 -0.0916
10435WAT    EPW42448   6.305   0.868   6.143 -0.3878  0.1193  0.7212
10436WAT      O42449   4.973   1.977   3.252 -0.4213 -0.1231  0.6713
10436WAT     H142450   5.026   2.029   3.298  1.9166 -0.1917 -1.7242
10436WAT     H242451   4.936   1.926   3.313  1.7262  0.4200  2.5611
10436WAT    EPW42452   4.976   1.977   3.268  0.1467  0.5396  0.0300
10437WAT      O42453   1.378   5.460   1.229  0.0391 -0.3586  0.1513
10437WAT     H142454   1.311   5.453   1.284 -1.3903  2.3511 -1.0522
10437WAT     H242455   1.448   5.445   1.279 -1.2530  0.8176  2.4433
10437WAT    EPW42456   1.378   5.457   1.244  0.1486  0.4894 -0.1072
10438WAT      O42457   4.856   2.439   5.233  0.5133  0.1243 -0.1987
10438WAT     H142458   4.823   2.378   5.286 -0.1547  0.9308  0.3521
10438WAT     H242459   4.929   2.403   5.202 -1.1033 -1.9372 -1.8743
10438WAT    EPW42460   4.862   2.425   5.237  0.4364 -0.3275 -0.0116
10439WAT      O42461   5.761   6.516   1.063 -0.3495  0.5249 -0.4113
10439WAT     H142462   5.760   6.433   1.035 -0.7261 -0.3544  1.9488
10439WAT     H242463   5.809   6.512   1.136  0.7604  2.6824 -0.9686
10439WAT    EPW42464   5.768   6.503   1.070 -0.5374  0.1258  0.1356
10440WAT      O42465   4.070   5.143   1.191  0.1716 -0.2520 -0.1854
10440WAT     H142466   4.133   5.143   1.251 -0.2721 -1.2014  0.3142
10440WAT     H242467   4.024   5.214   1.210 -0.9864 -1.4142  1.7721
10440WAT    EPW42468   4.073   5.153   1.203  0.1207  0.3300  0.1529
10441WAT      O42469   1.290   4.942   3.083  0.2325  0.1908  0.3710
10441WAT     H142470   1.369   4.979   3.081  0.1235  0.4632 -2.2008
10441WAT     H242471   1.241   5.000   3.125  1.4105 -0.1226  2.2955
10441WAT    EPW42472   1.295   4.956   3.089  0.2793  0.0194 -0.7596
10442WAT      O42473   5.997   2.600   6.432  0.6621  0.0691 -0.5527
10442WAT     H142474   6.023   2.518   6.419 -0.1960 -0.2393 -0.3688
10442WAT     H242475   6.020   2.641   6.358  1.9972 -0.0856 -0.2629
10442WAT    EPW42476   6.004   2.594   6.419  0.0623 -0.4844 -0.7096
10443WAT      O42477   1.920   0.604   2.091  0.1302  0.1642  0.0147
10443WAT     H142478   1.995   0.566   2.114 -0.7559 -0.2442  2.5947
10443WAT     H242479   1.936   0.689   2.100 -0.1188  0.0356  2.2935
10443WAT    EPW42480   1.933   0.611   2.096  0.2755 -0.5250  0.0118
10444WAT      O42481   7.598   3.031   2.899 -0.5422 -0.6207  0.6241
10444WAT     H142482   7.630   3.102   2.937 -2.6508  0.7424  0.0777
10444WAT     H242483   7.664   3.000   2.852  0.0929  1.7829 -0.1747
10444WAT    EPW42484   7.612   3.037   2.898  0.0279 -0.2968  0.0071
10445WAT      O42485   4.162   1.242   6.599  0.0685 -0.9638  0.0384
10445WAT     H142486   4.234   1.229   6.551  0.4366 -2.1637  0.8759
10445WAT     H242487   4.179   1.199   6.673 -0.8778  0.0628  0.8797
10445WAT    EPW42488   4.175   1.234   6.603 -0.3288  0.0287 -0.0155
10446WAT      O42489   3.222   4.163   2.196 -0.3680  0.5886 -0.5214
10446WAT     H142490   3.266   4.100   2.236  1.0708  0.0110 -2.8445
10446WAT     H242491   3.150   4.172   2.245  0.5366 -1.1047  1.2425
10446WAT    EPW42492   3.218   4.155   2.209  0.1622  0.0158  0.6665
10447WAT      O42493   2.976   0.562   1.955  0.3454  0.0272 -0.3617
10447WAT     H142494   3.001   0.479   1.964 -0.0908  0.0194  0.8144
10447WAT     H242495   3.048   0.607   1.974  0.2675 -0.0608  0.1549
10447WAT    EPW42496   2.990   0.556   1.959  0.1292  0.2720  0.7484
10448WAT      O42497   2.151   3.683   1.848  0.2390 -0.0054 -0.0968
10448WAT     H142498   2.160   3.652   1.768  1.2120 -0.1034  0.0401
10448WAT     H242499   2.232   3.685   1.879  0.4642  3.6803 -0.4847
10448WAT    EPW42500   2.164   3.679   1.841 -0.5391  0.2145  0.2295
10449WAT      O42501   7.497   5.849   1.280  0.1154  0.1762 -0.2609
10449WAT     H142502   7.419   5.826   1.310  0.7170  0.6638  1.8329
10449WAT     H242503   7.545   5.777   1.289 -0.2363 -0.3995 -2.3764
10449WAT    EPW42504   7.493   5.835   1.286 -0.0545 -0.5662 -0.1675
10450WAT      O42505   0.972   7.188   6.739 -0.0701 -0.2067  0.4940
10450WAT     H142506   1.024   7.146   6.795  1.0220  0.9849  0.4131
10450WAT     H242507   1.000   7.163   6.661 -1.3489 -1.5755  0.4341
10450WAT    EPW42508   0.984   7.178   6.736 -0.0054 -0.3843 -0.6213
10451WAT      O42509   3.875   0.062   7.480  0.2523 -0.4105 -0.2283
10451WAT     H142510   3.890  -0.010   7.527  0.3147  1.2094  2.4550
10451WAT     H242511   3.925   0.123   7.519 -1.4030  1.5566 -0.9705
10451WAT    EPW42512   3.885   0.061   7.493  0.8406  0.0529 -0.3566
10452WAT      O42513   4.211   5.926   3.375 -0.4735  0.1179 -0.4014
10452WAT     H142514   4.130   5.923   3.342 -0.6497 -1.0117  0.0644
10452WAT     H242515   4.218   5.849   3.416  0.4004  0.7093  0.5963
10452WAT    EPW42516   4.200   5.914   3.376 -0.1346  0.1056  0.0075
10453WAT      O42517   5.646   1.961   4.335  0.0131 -0.1385 -0.0998
10453WAT     H142518   5.567   1.967   4.298 -0.4006  0.9493  0.8810
10453WAT     H242519   5.641   2.016   4.403  1.7038  0.1796 -0.1772
10453WAT    EPW42520   5.634   1.970   4.340 -0.2416 -0.0835  0.3009
10454WAT      O42521   6.934   6.530   1.922 -0.0669  0.2733 -0.2259
10454WAT     H142522   7.008   6.492   1.900 -0.2400  0.1555 -0.6078
10454WAT     H242523   6.905   6.565   1.848 -0.6909 -0.1914 -0.2120
10454WAT    EPW42524   6.940   6.530   1.908  0.3238 -0.8383  0.1269
10455WAT      O42525   1.225   3.561   0.035  0.6229 -0.2624 -0.0927
10455WAT     H142526   1.277   3.628   0.016  3.5080 -2.6063 -1.1162
10455WAT     H242527   1.259   3.529   0.109 -2.3695  0.8230  1.9640
10455WAT    EPW42528   1.238   3.566   0.043 -0.3450  0.2344  0.5617
10456WAT      O42529   1.442   0.837   2.574  0.2652 -0.1250 -0.0699
10456WAT     H142530   1.478   0.773   2.527  2.1892  0.7026  0.1765
10456WAT     H242531   1.485   0.908   2.549 -1.7316  1.1155 -0.2492
10456WAT    EPW42532   1.454   0.838   2.563 -0.5057 -0.4858  0.2518
10457WAT      O42533   4.544   7.251   3.755 -0.2872 -0.3185  0.1583
10457WAT     H142534   4.460   7.239   3.771 -0.3471 -0.2320 -0.0871
10457WAT     H242535   4.552   7.338   3.753 -0.0115 -0.3087  1.1247
10457WAT    EPW42536   4.533   7.262   3.757  0.1108  0.3127  0.2379
10458WAT      O42537   1.329   7.261   3.808  0.5537 -0.0166 -0.2059
10458WAT     H142538   1.319   7.340   3.774  0.8991 -0.0943 -0.4869
10458WAT     H242539   1.415   7.248   3.805  0.3937 -0.8919 -1.2663
10458WAT    EPW42540   1.340   7.271   3.803 -0.6727  0.2491  0.1541
10459WAT      O42541   1.758   7.457   2.454  0.4259 -0.0039 -0.0748
10459WAT     H142542   1.770   7.515   2.390 -1.7579 -0.5129 -1.0262
10459WAT     H242543   1.678   7.476   2.484  0.8612 -0.6663  1.6056
10459WAT    EPW42544   1.748   7.469   2.449  0.2127 -0.0430  0.3595
10460WAT      O42545   2.328   6.577   3.039 -0.3873  0.0243 -0.0903
10460WAT     H142546   2.387   6.620   2.992  0.4323 -1.2816 -0.3168
10460WAT     H242547   2.266   6.556   2.981 -0.9317  1.1058  0.0790
10460WAT    EPW42548   2.327   6.580   3.024 -0.2245  0.3028  0.2346
10461WAT      O42549   4.872   6.196   4.946 -0.1507  0.0469 -0.1122
10461WAT     H142550   4.952   6.230   4.942 -0.0044 -0.3450 -0.7157
10461WAT     H242551   4.866   6.167   5.028 -0.4222  1.8207  0.5287
10461WAT    EPW42552   4.883   6.196   4.958  0.8046  0.2481 -0.3752
10462WAT      O42553   5.233   1.786   6.269  0.0723 -0.7135 -0.1404
10462WAT     H142554   5.245   1.772   6.354  1.0958 -0.3097 -0.2170
10462WAT     H242555   5.312   1.805   6.239 -0.2162 -1.1477 -1.2506
10462WAT    EPW42556   5.246   1.786   6.277  0.3321  0.2215  0.5902
10463WAT      O42557   7.359   5.404   1.067  0.3190 -0.3361 -0.0846
10463WAT     H142558   7.361   5.492   1.068  1.5186 -0.3411  0.8667
10463WAT     H242559   7.274   5.385   1.060  0.1075  0.8918 -1.2216
10463WAT    EPW42560   7.347   5.414   1.066 -0.3345 -0.2420  0.0574
10464WAT      O42561   5.159   6.456   2.079 -0.5408 -0.3236 -0.2763
10464WAT     H142562   5.132   6.373   2.074 -0.7597 -0.2545 -0.2658
10464WAT     H242563   5.162   6.471   2.165 -1.7059  0.0588 -0.2823
10464WAT    EPW42564   5.155   6.446   2.091  0.0563  0.6643  0.6079
10465WAT      O42565   6.103   5.496   4.568 -0.4065 -0.0452 -0.3819
10465WAT     H142566   6.041   5.437   4.587 -1.3577  0.9743 -0.1773
10465WAT     H242567   6.066   5.544   4.505  0.7086 -0.2161 -1.2013
10465WAT    EPW42568   6.088   5.494   4.561  0.2234 -0.1332 -0.0976
10466WAT      O42569   0.637   3.577   2.395  0.1280 -0.2277  0.8689
10466WAT     H142570   0.574   3.578   2.335  1.0248  0.6550 -0.0909
10466WAT     H242571   0.690   3.641   2.370  1.9825 -1.6432  1.0378
10466WAT    EPW42572   0.635   3.587   2.382 -1.1063  0.1837  0.0437
10467WAT      O42573   3.322   4.868   6.626 -0.1437 -0.6791 -0.3967
10467WAT     H142574   3.384   4.828   6.673  1.7519  0.2752 -1.9241
10467WAT     H242575   3.327   4.830   6.548 -0.7944  0.0837 -0.8300
10467WAT    EPW42576   3.332   4.857   6.621  0.1125 -0.5281 -0.2512
10468WAT      O42577   5.620   5.225   5.944 -0.4121 -0.3048  0.2073
10468WAT     H142578   5.608   5.308   5.967 -0.6112  0.1036 -1.2307
10468WAT     H242579   5.707   5.217   5.943 -0.3482  0.2445 -0.6965
10468WAT    EPW42580   5.631   5.236   5.947 -0.1395  0.2600 -1.1616
10469WAT      O42581   0.978   5.216   7.456 -0.1487 -0.6261  0.1403
10469WAT     H142582   0.938   5.174   7.522  0.5571 -0.2096  0.8485
10469WAT     H242583   1.008   5.151   7.406 -0.4286 -0.9464  0.3840
10469WAT    EPW42584   0.977   5.200   7.458  0.4932  0.0149  0.3168
10470WAT      O42585   4.982   2.906   6.593  0.5913  0.4480 -0.2412
10470WAT     H142586   5.023   2.927   6.667 -1.6889 -0.8261  1.5333
10470WAT     H242587   4.924   2.845   6.619 -1.8515  1.5591 -2.6305
10470WAT    EPW42588   4.979   2.900   6.608 -0.3663  0.0021  0.2883
10471WAT      O42589   5.401   1.510   7.363 -0.1778  0.2877 -0.5105
10471WAT     H142590   5.350   1.581   7.359  1.1336  1.3257  0.1157
10471WAT     H242591   5.480   1.541   7.342  0.4300 -0.9969 -0.2096
10471WAT    EPW42592   5.405   1.525   7.360  0.8177 -1.3495 -0.0140
10472WAT      O42593   4.640   4.854   0.637  0.3937 -0.0038 -0.0241
10472WAT     H142594   4.586   4.787   0.618  0.9567  0.3052 -3.0521
10472WAT     H242595   4.683   4.868   0.563  3.5011  0.8920  1.7956
10472WAT    EPW42596   4.638   4.846   0.624  0.6264  0.6434  0.6324
10473WAT      O42597   2.399   3.491   4.081 -0.1530  0.6131  0.4306
10473WAT     H142598   2.473   3.522   4.116  0.6666  1.5041 -1.8804
10473WAT     H242599   2.425   3.419   4.039 -0.6379  0.7898 -0.1787
10473WAT    EPW42600   2.414   3.485   4.080  0.2269  0.2696  0.3930
10474WAT      O42601   3.412   2.608   1.163  0.2928  0.0731  0.0535
10474WAT     H142602   3.381   2.675   1.115  1.0733  1.3550  1.2835
10474WAT     H242603   3.481   2.580   1.118  0.1001  0.2370 -0.3476
10474WAT    EPW42604   3.417   2.614   1.149  0.0435 -0.2454 -0.2609
10475WAT      O42605   3.748   6.903   4.892 -0.3749 -0.6393 -0.0057
10475WAT     H142606   3.826   6.903   4.852 -1.0644 -0.6504 -1.4360
10475WAT     H242607   3.713   6.827   4.867 -1.3724 -0.0314 -0.5068
10475WAT    EPW42608   3.754   6.892   4.882 -0.3863  0.2261 -1.3062
10476WAT      O42609   2.866   1.983   6.811 -0.5759 -0.0677  0.5920
10476WAT     H142610   2.949   1.969   6.789 -0.6897  0.4309 -0.2150
10476WAT     H242611   2.823   1.920   6.767 -0.7221  0.3822  0.0763
10476WAT    EPW42612   2.872   1.971   6.801  0.4982 -0.4193  0.4621
10477WAT      O42613   0.790   3.830   7.145  0.2103  0.1343  0.8225
10477WAT     H142614   0.772   3.915   7.135  1.0555  0.1038 -1.6758
10477WAT     H242615   0.724   3.791   7.105  0.4169 -0.3557  0.9550
10477WAT    EPW42616   0.778   3.837   7.138  0.2250  0.3256 -1.1533
10478WAT      O42617   1.198   4.641   3.371 -0.3108 -0.2368  0.2794
10478WAT     H142618   1.113   4.621   3.378 -1.2243  2.8414 -0.4770
10478WAT     H242619   1.221   4.659   3.453 -0.3926 -0.9988  0.4763
10478WAT    EPW42620   1.189   4.640   3.384  0.1438  0.5020  0.1333
10479WAT      O42621   4.025   7.479   4.020  0.3633 -0.1488 -0.3492
10479WAT     H142622   4.004   7.563   4.030 -1.2554 -0.2393 -2.4407
10479WAT     H242623   4.032   7.469   3.934  0.3035 -2.2119 -0.1676
10479WAT    EPW42624   4.023   7.490   4.009  0.0466 -0.3668  0.1388
10480WAT      O42625   5.638   6.368   6.718  0.0937 -0.0025  0.0808
10480WAT     H142626   5.580   6.308   6.691 -1.4629  1.5051 -0.1254
10480WAT     H242627   5.707   6.353   6.667 -1.0590 -0.2442 -1.4888
10480WAT    EPW42628   5.640   6.357   6.706  0.1468  0.4423  0.2041
10481WAT      O42629   3.032   6.871   4.156 -0.4233  0.3303 -0.3700
10481WAT     H142630   3.079   6.891   4.085 -0.7389  1.3247 -0.3014
10481WAT     H242631   2.986   6.800   4.130 -0.5867  0.7202 -1.1875
10481WAT    EPW42632   3.032   6.863   4.141 -0.0554 -0.2661 -0.2173
10482WAT      O42633   1.137   5.485   2.217 -0.1370  0.5212 -0.7844
10482WAT     H142634   1.075   5.505   2.159 -0.6695  1.0495 -0.0453
10482WAT     H242635   1.094   5.436   2.276  0.8036 -1.6183 -1.7769
10482WAT    EPW42636   1.121   5.481   2.217  0.3337  0.6819  0.0613
10483WAT      O42637   0.339   6.080   4.255  0.6320  0.4698  0.3357
10483WAT     H142638   0.391   6.011   4.243  0.8289  0.6120  0.3715
10483WAT     H242639   0.387   6.133   4.306  0.5274  0.6856  0.2072
10483WAT    EPW42640   0.354   6.077   4.261 -0.3761  0.2559 -0.2512
10484WAT      O42641   0.699   6.871   1.949  0.1571 -0.9576  0.0631
10484WAT     H142642   0.730   6.789   1.955 -1.3306 -1.4585  1.7686
10484WAT     H242643   0.614   6.861   1.961  0.0910  0.9699  1.6988
10484WAT    EPW42644   0.691   6.857   1.952 -0.0113 -0.2564  0.2780
10485WAT      O42645   4.875   3.752   6.302 -1.0336 -0.4009 -0.0664
10485WAT     H142646   4.923   3.696   6.256 -0.0641 -1.2686  1.9020
10485WAT     H242647   4.817   3.701   6.343 -0.9119  0.1506  0.8253
10485WAT    EPW42648   4.873   3.737   6.301 -0.3267 -0.3687 -0.0052
10486WAT      O42649   2.024   3.053   1.228 -0.3327  0.1151  0.1426
10486WAT     H142650   2.088   3.105   1.256 -1.1337  0.3363  1.6383
10486WAT     H242651   2.027   2.985   1.282 -0.8994 -0.2232 -0.2362
10486WAT    EPW42652   2.034   3.050   1.240 -0.3536  0.4290  0.0372
10487WAT      O42653   7.552   4.209   2.814  0.1997  0.5212 -0.1891
10487WAT     H142654   7.559   4.279   2.867  0.1094  0.6407 -0.3360
10487WAT     H242655   7.631   4.205   2.776  0.4303  0.1473  0.3099
10487WAT    EPW42656   7.565   4.219   2.816 -0.5961  0.3439  0.8091
10488WAT      O42657   1.711   0.162   6.639  0.6253 -0.3146 -0.8664
10488WAT     H142658   1.697   0.103   6.576  0.2600 -0.7879 -0.3545
10488WAT     H242659   1.796   0.181   6.631  0.3690  0.3938 -2.1434
10488WAT    EPW42660   1.722   0.156   6.628 -0.0703  0.6723  1.0619
10489WAT      O42661   6.202   2.138   4.315 -0.1715 -0.0333  0.5912
10489WAT     H142662   6.260   2.144   4.251 -0.7239  0.6810  0.1542
10489WAT     H242663   6.215   2.210   4.362 -0.9135  0.2857  0.3132
10489WAT    EPW42664   6.213   2.149   4.313  0.2855  0.1195 -0.2327
10490WAT      O42665   6.502   6.769   4.927  0.4280 -0.4267  0.1251
10490WAT     H142666   6.418   6.748   4.916  0.4036 -0.0530 -0.4891
10490WAT     H242667   6.544   6.695   4.911  0.4620  0.1933 -3.7166
10490WAT    EPW42668   6.496   6.755   4.923 -0.0221  0.3845  0.2349
10491WAT      O42669   1.456   3.462   7.304  0.9064 -0.0524 -0.3853
10491WAT     H142670   1.496   3.414   7.243 -0.2436 -1.5820  0.0028
10491WAT     H242671   1.380   3.484   7.267  0.5198 -0.3518  0.2168
10491WAT    EPW42672   1.451   3.458   7.290 -0.1293 -0.0715  0.3817
10492WAT      O42673   4.873   3.751   2.922  0.1537  0.2107 -0.0210
10492WAT     H142674   4.897   3.744   3.006  1.1383 -0.2638 -0.3259
10492WAT     H242675   4.903   3.677   2.886 -1.6344 -0.3326 -0.4774
10492WAT    EPW42676   4.881   3.739   2.929 -0.9431  0.5253 -0.4953
10493WAT      O42677   1.990   5.930   4.671 -0.1201  0.4241 -0.0425
10493WAT     H142678   2.071   5.953   4.693  0.2378 -1.4435  0.8115
10493WAT     H242679   1.991   5.843   4.680 -2.1789  0.3469 -0.1827
10493WAT    EPW42680   2.002   5.920   4.675  0.0570 -0.7087  0.7295
10494WAT      O42681   0.423   6.322   7.016  0.1168  0.5918  0.4376
10494WAT     H142682   0.378   6.251   6.994  1.6723 -0.6106  0.9393
10494WAT     H242683   0.439   6.311   7.101  1.9504  0.5788  0.1278
10494WAT    EPW42684   0.419   6.310   7.025  0.1695  0.2206  0.5924
10495WAT      O42685   0.988   5.700   7.465 -0.0055  0.2984  0.4475
10495WAT     H142686   1.014   5.754   7.528  1.4492  1.3620 -0.9836
10495WAT     H242687   1.030   5.625   7.483  0.2563  0.5359  0.8329
10495WAT    EPW42688   0.998   5.697   7.477  0.2118  0.5291  0.3063
10496WAT      O42689   5.280   4.674   1.251  0.0539 -0.0887 -0.0965
10496WAT     H142690   5.356   4.633   1.245  0.5874  1.0374 -1.4078
10496WAT     H242691   5.263   4.699   1.169 -1.2548  0.5297  0.3278
10496WAT    EPW42692   5.288   4.672   1.238 -0.6258 -0.2721 -0.6228
10497WAT      O42693   5.802   5.067   6.723  0.1279 -0.0518  0.1593
10497WAT     H142694   5.750   5.116   6.673 -0.0075  0.1594  0.5083
10497WAT     H242695   5.833   5.007   6.667 -0.6101 -0.2733 -0.0158
10497WAT    EPW42696   5.799   5.065   6.707  0.2524  0.0489 -0.5957
10498WAT      O42697   0.334   4.471   4.092 -0.2986  0.1461 -0.4579
10498WAT     H142698   0.306   4.441   4.169 -0.7117  1.6588  0.0287
10498WAT     H242699   0.389   4.410   4.064  0.2893 -0.1850  1.3006
10498WAT    EPW42700   0.338   4.457   4.099  0.6023 -0.1616 -0.3039
10499WAT      O42701   2.400   5.390   1.925  0.3592  0.0162 -0.3177
10499WAT     H142702   2.450   5.322   1.902 -0.3554 -1.1780  1.4622
10499WAT     H242703   2.410   5.446   1.858  1.7567 -1.3974 -1.3716
10499WAT    EPW42704   2.409   5.388   1.912 -0.1164 -0.3189 -0.4626
10500WAT      O42705   7.050   5.065   4.689  0.5553 -0.0378  0.3001
10500WAT     H142706   7.114   5.113   4.723  1.6673 -1.3088  0.0593
10500WAT     H242707   6.983   5.121   4.684  1.3040  1.0228  1.5797
10500WAT    EPW42708   7.049   5.080   4.693 -0.3432  0.0086 -0.1778
10501WAT      O42709   2.919   0.893   0.738 -0.1382  0.1595 -0.1324
10501WAT     H142710   2.896   0.816   0.771 -0.9088  0.8082  0.8849
10501WAT     H242711   2.853   0.946   0.760  0.3446  1.0973 -0.8671
10501WAT    EPW42712   2.906   0.890   0.746  0.1937  0.3816 -0.2202
10502WAT      O42713   6.400   0.713   6.561  0.2187 -0.1416 -0.1032
10502WAT     H142714   6.342   0.709   6.627  0.3624 -0.1731  0.0234
10502WAT     H242715   6.477   0.715   6.603  0.2696  1.3419 -0.2292
10502WAT    EPW42716   6.402   0.712   6.577 -0.1001  0.0203  0.1645
10503WAT      O42717   6.085   4.861   4.892  0.0137 -0.0234 -0.4970
10503WAT     H142718   6.133   4.838   4.961 -0.8692 -0.8384 -0.1476
10503WAT     H242719   6.008   4.884   4.927 -0.8071 -1.4848 -1.2780
10503WAT    EPW42720   6.081   4.861   4.908  0.3504 -0.1853 -0.1818
10504WAT      O42721   0.556   6.382   0.038 -0.4750  0.1095 -0.3395
10504WAT     H142722   0.598   6.372  -0.038  1.0259 -0.5720  0.5325
10504WAT     H242723   0.531   6.300   0.058 -0.4795  0.2235  0.1187
10504WAT    EPW42724   0.558   6.368   0.030 -0.2863  0.2817  0.4246
10505WAT      O42725   2.442   5.148   3.426 -0.4779  0.0882  0.2369
10505WAT     H142726   2.502   5.164   3.488  1.2792 -0.2411 -1.2915
10505WAT     H242727   2.399   5.223   3.419  1.8696  1.4387 -0.7697
10505WAT    EPW42728   2.444   5.161   3.434 -0.1178 -0.0909 -0.2323
10506WAT      O42729   0.229   2.448   1.167  0.0146  0.4993  0.0722
10506WAT     H142730   0.278   2.520   1.158  0.5407  0.2485  0.8702
10506WAT     H242731   0.233   2.411   1.088  1.0397  0.5367  0.0909
10506WAT    EPW42732   0.237   2.453   1.154  0.2718 -0.7425 -0.0011
10507WAT      O42733   5.668   6.040   2.104  0.0911 -0.2136  0.0954
10507WAT     H142734   5.705   5.966   2.077  0.5932 -0.8167  2.2360
10507WAT     H242735   5.610   6.013   2.164 -0.6000  1.0518  0.0315
10507WAT    EPW42736   5.665   6.025   2.109 -0.0158 -0.6091  0.1536
10508WAT      O42737   2.757   4.617   1.479  0.0190 -0.2658  0.2910
10508WAT     H142738   2.755   4.643   1.395 -0.2435  1.4960  0.7945
10508WAT     H242739   2.709   4.545   1.479  0.9876 -0.9685 -1.2716
10508WAT    EPW42740   2.750   4.610   1.467 -0.0139 -0.1734 -0.5031
10509WAT      O42741   7.276   7.182   3.278  0.2025 -0.0104 -0.1955
10509WAT     H142742   7.276   7.264   3.250 -0.2588  0.1862  0.3644
10509WAT     H242743   7.302   7.189   3.361  0.0756 -0.4217 -0.1172
10509WAT    EPW42744   7.280   7.195   3.286 -0.1559 -0.3830 -0.1858
10510WAT      O42745   0.847   7.120   1.601 -0.2750 -0.4459 -0.2865
10510WAT     H142746   0.893   7.063   1.647 -0.0424 -0.8048 -0.9495
10510WAT     H242747   0.769   7.119   1.639 -0.3753 -1.4641 -0.5088
10510WAT    EPW42748   0.842   7.112   1.613  0.2020  0.2515 -0.1971
10511WAT      O42749   4.869   6.579   2.720  0.3121 -1.0002 -0.5363
10511WAT     H142750   4.896   6.531   2.788  1.0106  0.4769  0.2807
10511WAT     H242751   4.789   6.603   2.742  0.6639 -0.2420 -0.0658
10511WAT    EPW42752   4.861   6.575   2.733 -0.0939  0.2155 -0.2484
10512WAT      O42753   6.566   6.313   6.497  0.4787  0.2062 -0.4255
10512WAT     H142754   6.629   6.347   6.546  0.9084 -0.1945 -0.6891
10512WAT     H242755   6.503   6.295   6.554  1.2163 -0.8395  0.1103
10512WAT    EPW42756   6.566   6.315   6.513  0.2036 -0.0648 -0.2638
10513WAT      O42757   5.248   1.706   0.503  0.5242 -0.0122  0.1357
10513WAT     H142758   5.211   1.785   0.501 -3.1372 -1.5512 -0.7281
10513WAT     H242759   5.227   1.677   0.583  2.1027 -0.0706  0.5543
10513WAT    EPW42760   5.239   1.714   0.515 -0.3997 -0.3673  0.8459
10514WAT      O42761   0.065   4.885   6.960 -0.1466 -0.0704  0.6095
10514WAT     H142762   0.114   4.904   6.890 -0.4284  1.0612  0.7005
10514WAT     H242763   0.075   4.799   6.969 -0.8631 -0.4432 -1.4178
10514WAT    EPW42764   0.073   4.875   6.951  0.9851  0.3443 -0.4457
10515WAT      O42765   4.834   6.042   1.373 -0.2230  0.2717  0.4755
10515WAT     H142766   4.886   5.982   1.410 -1.6513 -0.9490  0.5995
10515WAT     H242767   4.889   6.087   1.322  1.4325  0.7127  2.5001
10515WAT    EPW42768   4.850   6.039   1.371 -0.3319  0.4528 -0.1202
10516WAT      O42769   5.269   0.219   6.275  0.0472  0.6749  0.1388
10516WAT     H142770   5.311   0.282   6.232 -0.6324  0.2396 -1.2253
10516WAT     H242771   5.211   0.262   6.323  1.5991  1.2509  1.5861
10516WAT    EPW42772   5.267   0.234   6.276 -0.2110  0.3918  0.0101
10517WAT      O42773   1.320   2.784   0.430 -0.5291  0.0999 -0.2262
10517WAT     H142774   1.252   2.765   0.481  1.5949 -1.6033  2.1702
10517WAT     H242775   1.383   2.804   0.486  1.6395 -0.7303 -2.2234
10517WAT    EPW42776   1.319   2.784   0.446 -0.2087  0.8390 -0.4040
10518WAT      O42777   5.115   3.094   7.070 -0.9343  0.3390 -0.2533
10518WAT     H142778   5.101   3.179   7.057 -1.4182  0.2652 -0.2158
10518WAT     H242779   5.171   3.093   7.137 -0.4486  0.6401 -0.6400
10518WAT    EPW42780   5.121   3.107   7.078 -0.0252  0.0991  0.4653
10519WAT      O42781   3.869   4.301   6.539  0.2207 -0.3024 -0.5525
10519WAT     H142782   3.826   4.346   6.600  1.1152  0.0349 -0.1461
10519WAT     H242783   3.816   4.233   6.523 -0.6015  0.2639 -0.3205
10519WAT    EPW42784   3.855   4.297   6.546 -0.0329  0.4923 -0.6623
10520WAT      O42785   6.721   7.111   6.269 -0.0968 -0.3922 -0.3948
10520WAT     H142786   6.650   7.144   6.307 -0.3779  0.6135 -1.6969
10520WAT     H242787   6.689   7.067   6.201  0.4560 -0.9238 -0.3137
10520WAT    EPW42788   6.706   7.110   6.265 -0.2901 -0.9143 -0.2089
10521WAT      O42789   5.578   4.248   5.589  0.5796 -0.1653  0.3337
10521WAT     H142790   5.651   4.204   5.570  1.4818  0.7007  1.5890
10521WAT     H242791   5.589   4.271   5.673 -1.2427 -0.1859  0.6217
10521WAT    EPW42792   5.591   4.245   5.599 -0.5766 -0.0197  0.2349
10522WAT      O42793   1.192   3.985   3.750  0.0861  0.7952 -0.1780
10522WAT     H142794   1.139   4.054   3.762  0.2568  0.6669  1.6229
10522WAT     H242795   1.143   3.931   3.702 -0.6511  1.5210 -0.2829
10522WAT    EPW42796   1.177   3.987   3.745  0.3274  0.4740  0.5498
10523WAT      O42797   0.385   6.947   0.692 -0.0532  0.6986 -0.1352
10523WAT     H142798   0.434   6.978   0.758  1.7452 -0.5757 -0.8087
10523WAT     H242799   0.407   6.998   0.625  0.1241  0.3193 -0.3677
10523WAT    EPW42800   0.395   6.959   0.692 -0.0744 -0.0846  0.0095
10524WAT      O42801   1.969   1.319   6.520  0.4038 -0.0068 -0.5631
10524WAT     H142802   1.943   1.264   6.458  0.9437  0.2194 -0.9974
10524WAT     H242803   1.951   1.398   6.487  1.3555  0.1484 -0.7633
10524WAT    EPW42804   1.963   1.323   6.506  0.2979 -0.3094  0.3059
10525WAT      O42805   3.751   0.107   5.812 -0.4206 -0.3793  0.2583
10525WAT     H142806   3.688   0.164   5.833  0.1817  0.7383 -0.8312
10525WAT     H242807   3.716   0.061   5.746 -0.3203 -0.1885  0.0732
10525WAT    EPW42808   3.736   0.108   5.805 -0.3867  0.5044  0.4514
10526WAT      O42809   7.264   5.938   2.970  0.5662  0.0391 -0.2045
10526WAT     H142810   7.345   5.931   2.940 -0.0961  0.0903 -2.1411
10526WAT     H242811   7.221   5.977   2.904 -1.2184 -0.8176  0.3903
10526WAT    EPW42812   7.270   5.943   2.956 -0.1699 -0.0835 -0.0358
10527WAT      O42813   1.597   7.363   1.588 -0.4259 -0.2851 -0.0987
10527WAT     H142814   1.520   7.400   1.570 -0.9066  0.5955  3.1477
10527WAT     H242815   1.576   7.282   1.612 -0.4996  0.1389  1.3865
10527WAT    EPW42816   1.583   7.356   1.589 -0.3271 -0.1022 -0.7260
10528WAT      O42817   6.288   6.366   5.393  0.3887 -0.1796  0.1214
10528WAT     H142818   6.217   6.389   5.346  1.1191 -0.6291 -1.2667
10528WAT     H242819   6.261   6.294   5.435 -1.1987  1.7794  2.7728
10528WAT    EPW42820   6.273   6.359   5.392 -0.2716 -0.1423  0.1066
10529WAT      O42821   0.974   0.926   4.891  0.4719 -0.6343 -0.2717
10529WAT     H142822   1.014   0.876   4.951  3.6814  1.6207 -0.2782
10529WAT     H242823   1.002   0.892   4.815  1.0018 -0.1074 -0.3179
10529WAT    EPW42824   0.984   0.913   4.889 -0.4586  0.3967  0.9159
10530WAT      O42825   5.073   1.825   5.318  0.2038 -0.3808  0.0368
10530WAT     H142826   5.144   1.795   5.278 -0.2247 -0.5792 -0.5975
10530WAT     H242827   5.055   1.763   5.377  0.0493 -0.7675 -0.4079
10530WAT    EPW42828   5.081   1.811   5.320  0.5324  0.0948 -0.1865
10531WAT      O42829   2.752   1.844   7.169  0.1571 -0.2905 -0.1378
10531WAT     H142830   2.720   1.884   7.098 -1.4520 -2.4558 -0.7435
10531WAT     H242831   2.760   1.909   7.227 -0.2673  1.2466 -1.7074
10531WAT    EPW42832   2.748   1.859   7.167 -0.4023  0.1543 -0.0150
10532WAT      O42833   1.786   3.955   3.420 -0.5324  0.3014  0.2535
10532WAT     H142834   1.784   3.869   3.408  1.8253  0.3827 -1.3895
10532WAT     H242835   1.719   3.984   3.371  0.6289 -0.4520 -1.9413
10532WAT    EPW42836   1.776   3.947   3.411 -0.0035 -0.3376 -0.0412
10533WAT      O42837   5.300   2.019   6.605  0.5392  0.2313 -0.5432
10533WAT     H142838   5.338   1.940   6.605  1.7291  0.7659 -1.9270
10533WAT     H242839   5.306   2.044   6.688 -0.4614 -1.3790  0.0777
10533WAT    EPW42840   5.306   2.011   6.617 -0.0514 -0.4032  0.3288
10534WAT      O42841   2.437   5.899   6.375  0.6085  0.1718  0.9626
10534WAT     H142842   2.391   5.968   6.348  0.5557  0.9866  2.9788
10534WAT     H242843   2.516   5.913   6.341  0.4850  1.0016  0.9875
10534WAT    EPW42844   2.442   5.911   6.366  0.3283 -0.5201  0.0922
10535WAT      O42845   6.409   1.579   6.807  0.3013  0.1627 -0.3263
10535WAT     H142846   6.479   1.558   6.855 -0.0724  0.6976  0.4622
10535WAT     H242847   6.369   1.640   6.854 -0.2375  0.4900 -1.1843
10535WAT    EPW42848   6.414   1.585   6.821 -0.7888  0.2649 -0.6722
10536WAT      O42849   2.846   6.130   0.017 -0.1834 -0.1668 -1.2879
10536WAT     H142850   2.932   6.113   0.013  0.2016  1.6819 -1.7462
10536WAT     H242851   2.818   6.078   0.081  1.2392 -0.9022 -1.2100
10536WAT    EPW42852   2.855   6.120   0.026 -0.1721 -0.1751  0.5103
10537WAT      O42853   7.016   2.742   0.589  0.2236 -0.1887  0.3786
10537WAT     H142854   6.954   2.685   0.568 -1.2049  1.3054  0.3572
10537WAT     H242855   7.074   2.735   0.523 -0.6119 -0.6326 -0.3239
10537WAT    EPW42856   7.016   2.732   0.576  0.2555 -0.3075  0.4548
10538WAT      O42857   0.729   0.959   6.966  0.2758  0.0349 -0.5968
10538WAT     H142858   0.683   0.989   6.897 -0.5371 -2.9175 -1.5218
10538WAT     H242859   0.812   0.961   6.938  0.2294  1.1211 -0.6927
10538WAT    EPW42860   0.734   0.964   6.951 -0.1087 -0.1376  0.2075
10539WAT      O42861   5.879   1.350   0.598 -0.0009  0.1084 -0.2285
10539WAT     H142862   5.796   1.365   0.575 -0.0917 -2.2022 -1.6106
10539WAT     H242863   5.919   1.336   0.522  0.8091 -2.5472  0.5856
10539WAT    EPW42864   5.872   1.350   0.583  0.0952 -0.0711 -0.0196
10540WAT      O42865   5.992   2.839   0.455 -0.1756 -0.3058 -0.9319
10540WAT     H142866   6.001   2.913   0.410 -0.3313 -0.4138 -1.1427
10540WAT     H242867   6.069   2.829   0.495 -0.8094  1.0318  0.7373
10540WAT    EPW42868   6.005   2.848   0.454  0.2846  0.4776 -0.0840
10541WAT      O42869   5.798   1.858   3.884  0.0080  0.2125 -0.8553
10541WAT     H142870   5.719   1.833   3.913 -0.0538  1.1410 -0.1958
10541WAT     H242871   5.816   1.929   3.930  0.1519  1.4571 -2.7074
10541WAT    EPW42872   5.789   1.865   3.895 -0.2382 -0.6906  0.7540
10542WAT      O42873   3.547   1.719   0.407 -0.2509  0.0502 -0.0540
10542WAT     H142874   3.587   1.735   0.331  1.6301 -1.0721  0.6066
10542WAT     H242875   3.466   1.746   0.395  0.2828  0.8729 -2.1043
10542WAT    EPW42876   3.541   1.725   0.394 -0.2893 -0.8056  0.2605
10543WAT      O42877   6.503   4.780   0.096  0.2659  0.4919  0.3322
10543WAT     H142878   6.520   4.699   0.124 -1.4888 -0.6948 -1.7262
10543WAT     H242879   6.540   4.783   0.017  0.2778  1.7022  0.3678
10543WAT    EPW42880   6.511   4.768   0.088  0.1830  0.3374  0.3372
10544WAT      O42881   6.095   6.720   5.195 -0.7450 -0.7177 -0.4606
10544WAT     H142882   6.120   6.762   5.268  0.0403 -2.3868  0.2894
10544WAT     H242883   6.052   6.781   5.150 -0.4196  0.6319  0.9607
10544WAT    EPW42884   6.092   6.735   5.199  0.3068 -1.0271 -0.1166
10545WAT      O42885   4.398   4.877   1.897 -0.5175 -0.1284 -0.1666
10545WAT     H142886   4.442   4.940   1.857 -2.3183  0.9725 -0.5221
10545WAT     H242887   4.455   4.811   1.901  0.7771  0.8472 -1.5582
10545WAT    EPW42888   4.413   4.876   1.892  0.7050  0.9299  0.1766
10546WAT      O42889   3.826   6.409   1.459  0.0716  0.4474 -0.3843
10546WAT     H142890   3.846   6.472   1.402  0.6723  0.7684  0.1679
10546WAT     H242891   3.900   6.363   1.464 -0.3660 -0.3041 -0.7838
10546WAT    EPW42892   3.840   6.412   1.451 -0.3454 -0.1192  0.1479
10547WAT      O42893   1.478   4.952   2.800  0.0498 -0.2498  0.0463
10547WAT     H142894   1.397   4.929   2.824  0.3454 -0.4355  0.9264
10547WAT     H242895   1.481   5.038   2.816  1.1287 -0.7890  3.5919
10547WAT    EPW42896   1.466   4.961   2.806  0.2489 -0.0880 -0.1392
10548WAT      O42897   3.604   0.336   7.305  0.4364 -0.1163  0.3926
10548WAT     H142898   3.673   0.337   7.252 -1.2069 -0.7667 -1.9852
10548WAT     H242899   3.551   0.277   7.267 -2.2876  1.8521  0.8328
10548WAT    EPW42900   3.606   0.327   7.291  0.4363  0.1915 -0.4771
10549WAT      O42901   0.570   1.350   6.116 -0.4506  0.3346  0.4070
10549WAT     H142902   0.650   1.359   6.084 -0.1091  0.5669  1.2968
10549WAT     H242903   0.536   1.430   6.108 -0.6232  0.2135 -0.0549
10549WAT    EPW42904   0.577   1.364   6.110  0.4531 -0.1123 -0.2121
10550WAT      O42905   1.457   1.269   3.388  0.0565 -0.2180 -0.2366
10550WAT     H142906   1.406   1.328   3.349 -2.0503 -1.7217  0.1190
10550WAT     H242907   1.439   1.280   3.473  1.4890  0.2156  0.0414
10550WAT    EPW42908   1.447   1.280   3.395 -0.2598 -0.2724  0.1044
10551WAT      O42909   3.567   1.326   1.707  0.0153 -0.2010  0.1468
10551WAT     H142910   3.501   1.323   1.764 -0.1339  0.4807  0.0176
10551WAT     H242911   3.533   1.368   1.638  0.5513  0.0510  0.0316
10551WAT    EPW42912   3.552   1.332   1.705  0.4546 -0.5279  0.7335
10552WAT      O42913   7.031   2.587   3.989  0.1590 -0.2442 -0.2388
10552WAT     H142914   7.033   2.607   4.074 -1.8443 -0.2218 -0.1396
10552WAT     H242915   7.031   2.500   3.988  2.2083 -0.2788 -0.3498
10552WAT    EPW42916   7.031   2.577   4.002  0.3101 -0.5222 -0.2379
10553WAT      O42917   7.364   1.217   3.816 -0.0279  0.0067  0.2547
10553WAT     H142918   7.300   1.221   3.757  0.1969  1.2044  0.0826
10553WAT     H242919   7.434   1.192   3.769 -0.0525  0.0544  0.1933
10553WAT    EPW42920   7.365   1.214   3.800  0.3385  0.1144  0.2602
10554WAT      O42921   0.758   7.363   3.168  0.1528 -0.1865  0.3852
10554WAT     H142922   0.759   7.382   3.253 -0.4013  0.7359  0.1903
10554WAT     H242923   0.810   7.293   3.163  0.3224 -0.1588  1.4564
10554WAT    EPW42924   0.766   7.355   3.180  0.0574  0.3080 -0.1866
10555WAT      O42925   6.270   7.136   7.196  0.1276  0.0670 -0.6393
10555WAT     H142926   6.268   7.108   7.279  2.7640 -0.9463 -0.8048
10555WAT     H242927   6.283   7.222   7.204  0.9685 -0.1049  0.0597
10555WAT    EPW42928   6.272   7.145   7.210  0.4419 -0.0301  0.3844
10556WAT      O42929   2.639   7.297   6.538  0.3766 -0.0791 -0.3468
10556WAT     H142930   2.587   7.321   6.472 -0.1087 -1.6548 -0.5876
10556WAT     H242931   2.719   7.307   6.505  0.2004  1.0510 -0.4617
10556WAT    EPW42932   2.643   7.302   6.523 -0.5058  0.5365 -0.2674
10557WAT      O42933   1.778   7.403   4.026  0.0132 -0.3962  0.3166
10557WAT     H142934   1.730   7.350   3.976 -0.2664  0.6907 -0.6014
10557WAT     H242935   1.753   7.483   4.002  0.9554  0.1770  1.1443
10557WAT    EPW42936   1.767   7.407   4.015  0.4924  0.1966  0.0081
10558WAT      O42937   0.118   4.964   4.451 -0.0259 -0.0642 -0.4347
10558WAT     H142938   0.128   5.048   4.432 -0.3850 -0.1527 -1.0197
10558WAT     H242939   0.136   4.960   4.536  0.4258  0.5293 -0.5008
10558WAT    EPW42940   0.122   4.976   4.461  0.3775  0.1491 -0.4596
10559WAT      O42941   1.270   3.014   6.826 -0.3061 -0.3891 -0.5426
10559WAT     H142942   1.252   2.930   6.809 -0.5197 -0.3004 -0.7566
10559WAT     H242943   1.250   3.022   6.911 -1.3022 -0.2927 -0.7683
10559WAT    EPW42944   1.264   3.003   6.836 -0.2011 -0.1615 -0.6354
10560WAT      O42945   6.554   0.383   5.775 -0.3933  0.3829 -0.4362
10560WAT     H142946   6.474   0.406   5.751 -1.3719 -1.5429  0.6547
10560WAT     H242947   6.593   0.361   5.700 -1.1481  0.6394 -0.9119
10560WAT    EPW42948   6.548   0.383   5.760 -0.1470 -0.0103  0.1690
10561WAT      O42949   0.110   1.417   7.273 -0.2170 -0.2885 -0.2826
10561WAT     H142950   0.123   1.471   7.341 -2.7059  0.9207 -0.6734
10561WAT     H242951   0.166   1.447   7.213  0.3765  0.0851  0.4351
10561WAT    EPW42952   0.121   1.429   7.274  0.1187  0.5551 -0.3193
10562WAT      O42953   4.699   0.259   7.119 -0.4439 -0.0223 -0.1418
10562WAT     H142954   4.655   0.211   7.061  0.4645 -1.1620  0.0832
10562WAT     H242955   4.772   0.282   7.076 -0.6278  0.7418 -0.0715
10562WAT    EPW42956   4.703   0.255   7.104 -0.1892  0.0959  0.0197
10563WAT      O42957   2.305   2.931   6.623  0.0455 -0.0471 -0.2021
10563WAT     H142958   2.383   2.899   6.598  0.7479  1.0559  0.4881
10563WAT     H242959   2.259   2.933   6.549  1.3017  1.0030 -0.9993
10563WAT    EPW42960   2.310   2.926   6.608  0.2036 -0.0421 -0.1786
10564WAT      O42961   2.526   5.304   2.377 -1.1022  0.1138  0.0622
10564WAT     H142962   2.456   5.284   2.426 -2.3197 -1.7924 -2.2315
10564WAT     H242963   2.501   5.374   2.332 -1.0243  0.2219  0.1858
10564WAT    EPW42964   2.512   5.311   2.377  0.4802  0.0489 -0.4506
10565WAT      O42965   4.476   1.462   3.090 -0.1740 -0.1490 -0.4968
10565WAT     H142966   4.552   1.503   3.082  0.7346 -1.9430 -1.9194
10565WAT     H242967   4.423   1.507   3.036  0.1967  0.3971 -0.4134
10565WAT    EPW42968   4.479   1.475   3.081 -0.2381 -0.2868 -0.4901
10566WAT      O42969   2.344   4.371   1.567 -0.2665  0.0711  0.2366
10566WAT     H142970   2.299   4.297   1.581 -1.5672  0.3548 -1.9558
10566WAT     H242971   2.319   4.422   1.633 -0.0997 -1.0926  1.2442
10566WAT    EPW42972   2.334   4.367   1.579 -0.3177  0.1581  0.7432
10567WAT      O42973   3.731   2.557   2.888  0.2323  0.1522  0.2685
10567WAT     H142974   3.657   2.551   2.934  0.0097 -1.0551 -0.1990
10567WAT     H242975   3.708   2.603   2.817  0.2742  0.9551  0.7720
10567WAT    EPW42976   3.716   2.563   2.884 -0.0844  0.3398  0.5873
10568WAT      O42977   3.203   3.376   2.118  0.5393 -0.7747 -0.0373
10568WAT     H142978   3.262   3.386   2.182  0.4998 -2.0293  0.2272
10568WAT     H242979   3.222   3.297   2.086  0.7665 -0.0497 -1.8113
10568WAT    EPW42980   3.215   3.366   2.123 -0.3035  0.5397  0.0759
10569WAT      O42981   1.464   0.700   6.600  0.0966  0.0062  0.0382
10569WAT     H142982   1.428   0.718   6.523  1.8577 -0.2976 -0.9045
10569WAT     H242983   1.522   0.764   6.611  0.8086 -0.6916  0.4585
10569WAT    EPW42984   1.467   0.712   6.590 -0.0428 -0.3348  0.0266
10570WAT      O42985   6.477   0.260   3.537 -0.2986 -0.7523 -0.7785
10570WAT     H142986   6.521   0.257   3.462 -0.6278 -1.1376 -0.9543
10570WAT     H242987   6.419   0.196   3.530 -1.4971  0.3215 -0.9115
10570WAT    EPW42988   6.475   0.250   3.525  0.1513 -0.1829 -0.0232
10571WAT      O42989   3.240   4.459   5.581  0.0480  0.0234 -0.3551
10571WAT     H142990   3.230   4.468   5.495 -0.8134 -0.0702 -0.2748
10571WAT     H242991   3.276   4.380   5.589  1.2480  0.5068 -0.6774
10571WAT    EPW42992   3.244   4.449   5.569  0.4079  0.0043  0.0291
10572WAT      O42993   1.677   4.259   1.103 -0.3853 -0.0109 -0.5539
10572WAT     H142994   1.641   4.336   1.124 -0.1165 -0.0244 -0.0270
10572WAT     H242995   1.762   4.272   1.115 -0.4141 -0.6790  0.5073
10572WAT    EPW42996   1.684   4.272   1.108  0.6413 -0.5748 -0.5358
10573WAT      O42997   1.216   4.442   0.522  0.0025  0.0980 -0.5915
10573WAT     H142998   1.177   4.368   0.497 -0.2031  0.1539 -0.4425
10573WAT     H242999   1.300   4.425   0.511 -0.0413 -0.1660 -0.5492
10573WAT    EPW43000   1.222   4.428   0.517  0.4559 -0.0506  0.1309
10574WAT      O43001   0.201   4.401   6.300  0.9658  0.5192  0.0670
10574WAT     H143002   0.156   4.472   6.275 -1.4190 -0.5952  0.9325
10574WAT     H243003   0.190   4.346   6.233  0.6272  0.0798  0.4779
10574WAT    EPW43004   0.193   4.404   6.286 -0.2415 -0.0736 -0.1688
10575WAT      O43005   4.107   0.953   4.649 -0.0664 -0.0886 -0.9305
10575WAT     H143006   4.071   1.027   4.619 -1.7945 -0.8818 -0.9413
10575WAT     H243007   4.040   0.897   4.651  0.9711 -1.3602  0.1084
10575WAT    EPW43008   4.092   0.955   4.645 -0.0878 -0.4542  0.2009
10576WAT      O43009   7.038   4.557   5.836  0.2409 -0.2455 -0.3524
10576WAT     H143010   6.981   4.560   5.903  0.7707  3.1814  0.0917
10576WAT     H243011   6.987   4.564   5.766 -0.0648  0.6239 -0.0600
10576WAT    EPW43012   7.022   4.558   5.836 -0.4912 -1.0861 -0.1897
10577WAT      O43013   1.289   6.324   2.050 -0.0929  0.1238  0.0211
10577WAT     H143014   1.298   6.307   1.965  1.3227 -0.5172  0.2722
10577WAT     H243015   1.294   6.411   2.054  0.6181  0.1150 -0.4844
10577WAT    EPW43016   1.291   6.334   2.038 -0.6007 -0.1596  0.3958
10578WAT      O43017   0.784   5.969   6.736  0.0492  0.4920 -0.4016
10578WAT     H143018   0.836   5.910   6.774 -1.1838 -0.5264 -0.2116
10578WAT     H243019   0.705   5.932   6.740 -0.3550  0.9098 -2.7887
10578WAT    EPW43020   0.780   5.955   6.742 -0.3004 -0.4992  0.1649
10579WAT      O43021   7.309   5.183   4.379 -0.7169 -0.0423  0.0218
10579WAT     H143022   7.351   5.113   4.410 -0.8411 -0.7547 -1.3473
10579WAT     H243023   7.334   5.187   4.296 -0.3796  1.8280  0.1657
10579WAT    EPW43024   7.319   5.173   4.372  0.2308 -0.3916  0.2806
10580WAT      O43025   0.181   3.209   5.740 -0.1227 -0.2416  0.2005
10580WAT     H143026   0.116   3.221   5.797 -0.3000 -1.5500  0.3121
10580WAT     H243027   0.253   3.226   5.786 -0.3262  0.0293  0.4225
10580WAT    EPW43028   0.182   3.213   5.755  0.1208 -0.0445  0.3495
10581WAT      O43029   1.991   4.447   2.251 -0.0977 -0.9506 -0.1269
10581WAT     H143030   2.031   4.383   2.207  0.4497  0.1187 -1.2205
10581WAT     H243031   1.928   4.473   2.196  1.2067  1.0610 -0.7590
10581WAT    EPW43032   1.987   4.441   2.236  0.1603 -0.2514 -0.2449
10582WAT      O43033   7.432   2.977   3.319  0.3143  0.2843 -0.4695
10582WAT     H143034   7.483   2.907   3.329 -1.7356 -1.4110 -1.1405
10582WAT     H243035   7.429   3.013   3.399 -1.7496 -2.7877  1.0253
10582WAT    EPW43036   7.439   2.972   3.333  0.2519 -0.7315  0.7045
10583WAT      O43037   1.139   0.591   1.597 -0.0937 -0.1086  0.5326
10583WAT     H143038   1.078   0.533   1.618 -1.3606  1.3465  1.0356
10583WAT     H243039   1.186   0.599   1.670  0.0343 -0.4017  0.4873
10583WAT    EPW43040   1.137   0.583   1.611 -0.3928 -0.3738 -0.6988
10584WAT      O43041   2.536   3.385   1.914  0.3698 -0.1723  0.8851
10584WAT     H143042   2.522   3.415   1.995 -2.0264 -0.5338  0.6782
10584WAT     H243043   2.552   3.458   1.868 -0.4680  0.2674  1.2806
10584WAT    EPW43044   2.537   3.400   1.919  0.1760  0.1277  0.3452
10585WAT      O43045   2.598   1.398   0.375 -0.7995  0.1532  0.2072
10585WAT     H143046   2.522   1.412   0.415 -1.0450  1.9121 -0.7420
10585WAT     H243047   2.655   1.444   0.422 -0.9101  1.3668 -0.7798
10585WAT    EPW43048   2.595   1.407   0.388 -0.3124  0.3347 -0.0083
10586WAT      O43049   1.275   5.505   4.785  0.2471  0.1436  0.3039
10586WAT     H143050   1.286   5.451   4.717  2.0907  0.5752  0.1998
10586WAT     H243051   1.273   5.451   4.854 -0.3328 -0.2117  0.0129
10586WAT    EPW43052   1.277   5.489   4.785  0.0478 -0.1347 -0.4083
10587WAT      O43053   1.884   2.461   0.960  0.4511 -0.0685 -0.4590
10587WAT     H143054   1.952   2.482   1.012 -1.1849  1.4603  1.2447
10587WAT     H243055   1.921   2.418   0.894  3.1005  0.8377  0.2912
10587WAT    EPW43056   1.900   2.458   0.958  0.1940  0.0529 -0.4135
10588WAT      O43057   2.412   0.963   4.122  0.3351  0.0068  0.2697
10588WAT     H143058   2.462   0.892   4.116  1.3915  0.7162  0.4884
10588WAT     H243059   2.455   1.014   4.178 -0.4157  0.8200  0.1257
10588WAT    EPW43060   2.426   0.960   4.130  0.2839 -0.0016 -0.5838
10589WAT      O43061   6.376   4.621   4.019  0.0910 -0.1946  0.1742
10589WAT     H143062   6.333   4.661   3.953  1.0369  1.9828  0.7912
10589WAT     H243063   6.312   4.579   4.062 -0.9387  0.4248 -0.6816
10589WAT    EPW43064   6.360   4.621   4.015 -0.3521  0.2198  0.4849
10590WAT      O43065   6.285   4.942   3.001 -0.2192  0.4079  0.2175
10590WAT     H143066   6.243   5.018   2.995 -2.8408 -0.9468  0.2470
10590WAT     H243067   6.302   4.921   2.918 -1.9536 -0.2147 -0.0130
10590WAT    EPW43068   6.282   4.950   2.988  0.1999  0.5254  0.0584
10591WAT      O43069   1.844   5.007   7.576  0.2992 -0.0067  0.7849
10591WAT     H143070   1.877   4.992   7.655  1.1936 -0.6944  0.2979
10591WAT     H243071   1.826   5.093   7.577  1.0554  0.1504  1.4467
10591WAT    EPW43072   1.846   5.017   7.587  0.2615 -0.1521  0.0831
10592WAT      O43073   7.145   7.482   1.741 -0.3789 -0.0917 -0.1046
10592WAT     H143074   7.099   7.544   1.782 -1.4190 -1.3668  0.7713
10592WAT     H243075   7.104   7.408   1.764  1.2935 -1.1867 -0.4169
10592WAT    EPW43076   7.132   7.480   1.751 -0.5240  0.9703  0.0063
10593WAT      O43077   4.746   5.895   6.160  0.0852  0.2528 -0.1169
10593WAT     H143078   4.740   5.817   6.199  0.3379  0.2451 -0.0918
10593WAT     H243079   4.725   5.951   6.223 -0.8752  0.1627 -0.3483
10593WAT    EPW43080   4.742   5.891   6.175 -0.1406 -0.2326  0.3662
10594WAT      O43081   0.820   0.740   3.377 -0.1109  0.2487 -0.3058
10594WAT     H143082   0.864   0.815   3.374 -0.1474  0.3484  1.0367
10594WAT     H243083   0.875   0.686   3.419  0.1247 -0.6376 -1.6920
10594WAT    EPW43084   0.835   0.743   3.383  0.0838  0.2312  0.0599
10595WAT      O43085   3.870   1.961   4.982 -0.0284 -0.1926  0.7247
10595WAT     H143086   3.877   2.026   5.040 -0.4268 -0.5358  1.1559
10595WAT     H243087   3.869   2.003   4.905 -2.1479  0.4933  1.0469
10595WAT    EPW43088   3.871   1.977   4.979 -0.5432  1.0621  0.2102
10596WAT      O43089   5.276   2.460   1.660 -0.2068 -0.8569  0.1643
10596WAT     H143090   5.244   2.541   1.664 -0.7082 -0.9396 -1.3641
10596WAT     H243091   5.292   2.440   1.743 -1.3552  0.3031  0.7036
10596WAT    EPW43092   5.273   2.469   1.673 -0.2122 -0.6001 -0.1902
10597WAT      O43093   1.613   5.627   1.635 -0.5900  0.0276  0.4544
10597WAT     H143094   1.645   5.697   1.595  0.9063  0.1691  1.8227
10597WAT     H243095   1.575   5.582   1.570  2.5387 -0.2476 -1.3753
10597WAT    EPW43096   1.612   5.630   1.620 -0.0593 -0.1393 -0.1472
10598WAT      O43097   2.449   5.734   1.447 -0.2864 -0.3761  0.1113
10598WAT     H143098   2.527   5.714   1.414 -0.4435  0.1070 -0.5955
10598WAT     H243099   2.451   5.702   1.528  1.4111  1.3906  0.8317
10598WAT    EPW43100   2.460   5.726   1.454  0.2255  0.4420 -0.5893
10599WAT      O43101   0.176   5.979   7.200 -1.1625 -0.1696 -0.3854
10599WAT     H143102   0.228   5.916   7.232 -1.4652  0.6522  1.9259
10599WAT     H243103   0.097   5.942   7.198 -0.9841 -0.5267 -1.1557
10599WAT    EPW43104   0.172   5.964   7.204  0.3733 -0.3251  0.4037
10600WAT      O43105   2.742   4.675   1.198 -0.9236  0.2626  0.3447
10600WAT     H143106   2.670   4.717   1.172  0.4722  1.6307 -1.5198
10600WAT     H243107   2.800   4.738   1.212  0.0501 -0.8231  1.5531
10600WAT    EPW43108   2.740   4.690   1.196 -0.2848 -0.0889 -0.5470
10601WAT      O43109   2.330   1.297   2.195  0.1509  0.0999 -0.2530
10601WAT     H143110   2.401   1.255   2.166  0.4801  0.6524 -0.2700
10601WAT     H243111   2.362   1.372   2.227 -0.4115  0.3088 -0.1646
10601WAT    EPW43112   2.345   1.302   2.195  0.5534  0.6998  0.6573
10602WAT      O43113   2.972   1.754   7.318  1.1212 -0.3227 -0.3010
10602WAT     H143114   2.919   1.793   7.261  0.4935 -0.0206  0.4666
10602WAT     H243115   2.965   1.804   7.389  4.1873  1.0881 -0.8474
10602WAT    EPW43116   2.963   1.767   7.320 -0.2033  0.0152  0.1231
10603WAT      O43117   1.806   3.758   3.683 -0.3827 -0.3612  0.7665
10603WAT     H143118   1.733   3.807   3.677 -0.1825 -0.1827 -0.7974
10603WAT     H243119   1.870   3.817   3.678 -0.1322 -0.7509 -1.6192
10603WAT    EPW43120   1.805   3.774   3.681  0.0670  0.0461 -0.4098
10604WAT      O43121   6.521   5.905   4.226  0.2560 -0.2012 -0.4922
10604WAT     H143122   6.470   5.864   4.284  1.1438  0.0022  0.4673
10604WAT     H243123   6.540   5.981   4.265  1.4595 -0.3615 -0.7087
10604WAT    EPW43124   6.516   5.910   4.240 -0.0058 -0.7144  0.2286
10605WAT      O43125   1.290   6.743   7.232  0.2920  0.1182  0.4073
10605WAT     H143126   1.268   6.826   7.218 -0.0170 -0.2301 -1.3117
10605WAT     H243127   1.231   6.716   7.291 -1.1977  0.4408 -0.8635
10605WAT    EPW43128   1.278   6.752   7.239 -0.1520  0.1177 -0.0706
10606WAT      O43129   3.593   4.798   2.294  0.0939  0.4730 -0.1134
10606WAT     H143130   3.565   4.842   2.224  2.5483  0.1692 -1.3912
10606WAT     H243131   3.619   4.861   2.349  0.6952  0.6810 -0.6294
10606WAT    EPW43132   3.592   4.814   2.292  0.0520  0.1223  0.2871
10607WAT      O43133   1.005   0.750   4.640  0.3866  0.3611  0.5735
10607WAT     H143134   1.058   0.706   4.586 -0.9466 -1.2208  0.4518
10607WAT     H243135   0.969   0.810   4.589 -0.3059 -0.6442 -0.1650
10607WAT    EPW43136   1.008   0.752   4.624 -0.3337 -0.2993 -0.3106
10608WAT      O43137   1.095   2.871   2.768 -0.2457  0.0628 -0.1682
10608WAT     H143138   1.022   2.914   2.788 -0.4221 -0.8562  1.3360
10608WAT     H243139   1.151   2.894   2.831  0.0799 -0.8424 -0.1144
10608WAT    EPW43140   1.092   2.881   2.780 -0.4413  0.1715  0.1261
10609WAT      O43141   4.387   0.912   6.949  0.4712 -0.2210  0.2911
10609WAT     H143142   4.340   0.975   6.911  0.6114 -1.2486 -1.7190
10609WAT     H243143   4.400   0.942   7.030 -3.1618  0.3340  0.8284
10609WAT    EPW43144   4.382   0.926   6.956  0.3983  0.9236 -0.2452
10610WAT      O43145   6.946   4.798   0.112 -0.0548 -0.5733  1.2836
10610WAT     H143146   7.028   4.825   0.099 -1.0842  3.5364  1.9194
10610WAT     H243147   6.934   4.809   0.198 -1.5015 -0.1703  1.0564
10610WAT    EPW43148   6.957   4.804   0.123  0.2111  0.2392  0.3243
10611WAT      O43149   3.821   1.479   1.743 -0.2425  0.4815  0.1665
10611WAT     H143150   3.741   1.448   1.727  0.2246 -0.9914  0.4895
10611WAT     H243151   3.873   1.413   1.719  0.8147  0.9277  1.1602
10611WAT    EPW43152   3.817   1.465   1.737 -0.1123  0.0541  0.0037
10612WAT      O43153   0.282   4.100   4.414  0.0484 -0.6688 -0.2290
10612WAT     H143154   0.240   4.101   4.491 -1.1645 -2.4217 -0.8195
10612WAT     H243155   0.365   4.086   4.436 -0.2365 -0.8334  0.7881
10612WAT    EPW43156   0.288   4.098   4.429  0.6012 -0.2142  0.1714
10613WAT      O43157   2.300   5.805   2.248  0.1335 -0.1070  0.9656
10613WAT     H143158   2.287   5.723   2.275  1.1538 -0.7189 -0.2611
10613WAT     H243159   2.356   5.795   2.181 -2.1532  1.2686 -1.3411
10613WAT    EPW43160   2.307   5.791   2.242  0.2611 -0.1079 -0.0418
10614WAT      O43161   4.937   1.874   5.081  0.1817 -0.2737 -0.7467
10614WAT     H143162   4.991   1.859   5.147  1.4897  0.8133 -1.4931
10614WAT     H243163   4.896   1.947   5.105  1.5147  0.8099 -1.5561
10614WAT    EPW43164   4.939   1.883   5.094 -1.0862  0.9151 -0.6861
10615WAT      O43165   4.850   3.603   3.741 -0.4284  0.1013 -0.0892
10615WAT     H143166   4.801   3.650   3.687 -0.6611 -0.3348 -0.2557
10615WAT     H243167   4.828   3.633   3.820 -1.7922 -0.8679 -0.0826
10615WAT    EPW43168   4.840   3.615   3.745 -0.4283  0.7119  0.3433
10616WAT      O43169   0.084   0.257   5.437 -0.2609  0.2478 -0.8370
10616WAT     H143170   0.016   0.214   5.470 -0.1326  1.1929  0.8190
10616WAT     H243171   0.049   0.328   5.401 -0.3645 -0.6023 -2.4836
10616WAT    EPW43172   0.069   0.261   5.437 -0.2693 -0.0413  0.2514
10617WAT      O43173   2.917   2.697   5.070  0.0515 -0.2602  0.1369
10617WAT     H143174   2.999   2.698   5.040 -0.0850  1.3897 -0.2471
10617WAT     H243175   2.928   2.692   5.157  0.5435 -0.3533  0.0762
10617WAT    EPW43176   2.931   2.696   5.079 -0.7039  0.2574  0.1026
10618WAT      O43177   2.103   5.583   7.553 -0.1175 -0.3586  0.0216
10618WAT     H143178   2.132   5.526   7.494  0.6683  0.7561 -0.7177
10618WAT     H243179   2.175   5.623   7.580 -0.3445 -1.3968  2.4182
10618WAT    EPW43180   2.118   5.581   7.548  0.2174  0.3127  0.2104
10619WAT      O43181   1.824   5.100   3.467  0.2404  1.0299 -0.4108
10619WAT     H143182   1.888   5.118   3.523 -0.3473  1.3091  0.1859
10619WAT     H243183   1.860   5.115   3.389  0.7619  1.6216 -0.0667
10619WAT    EPW43184   1.839   5.105   3.463 -0.0544 -0.2199  0.6820
10620WAT      O43185   6.999   2.901   4.521  0.0739  0.0679  0.2948
10620WAT     H143186   7.032   2.965   4.471  4.0934  0.5566  3.1112
10620WAT     H243187   6.990   2.938   4.599  0.1479 -2.2040  1.4580
10620WAT    EPW43188   7.002   2.916   4.525  0.0219  0.0470 -0.0346
10621WAT      O43189   5.528   1.617   1.441 -0.1539  0.1327  0.2007
10621WAT     H143190   5.572   1.590   1.370 -1.8204  0.1683 -0.9007
10621WAT     H243191   5.444   1.605   1.419 -0.7599  1.3296  1.6850
10621WAT    EPW43192   5.522   1.611   1.427  0.3972  0.6380 -0.4496
10622WAT      O43193   7.331   4.312   4.284  0.2933 -0.2826 -0.0054
10622WAT     H143194   7.412   4.342   4.274  0.6652 -1.1733  0.2103
10622WAT     H243195   7.342   4.226   4.296 -0.7833 -0.7145 -1.7318
10622WAT    EPW43196   7.345   4.304   4.284  0.8088  0.8037 -0.1035
10623WAT      O43197   1.487   4.839   6.732  0.1974  0.2828  0.0075
10623WAT     H143198   1.544   4.813   6.793  0.7526  1.8783  0.1972
10623WAT     H243199   1.413   4.850   6.776  0.2751  0.2423  0.1490
10623WAT    EPW43200   1.484   4.837   6.747 -0.2321 -0.0814 -0.2633
10624WAT      O43201   0.289   3.562   5.002 -0.6539  0.0015  0.2687
10624WAT     H143202   0.253   3.577   4.924  3.2228  0.4354 -1.7003
10624WAT     H243203   0.284   3.640   5.042 -2.9249 -0.2927  0.6866
10624WAT    EPW43204   0.283   3.576   4.996 -0.0894  0.7821 -0.6435
10625WAT      O43205   3.200   3.190   7.191 -0.2975 -0.0213  0.0679
10625WAT     H143206   3.176   3.137   7.126  0.4875 -0.6137  0.2358
10625WAT     H243207   3.178   3.269   7.163 -0.0852 -0.2833 -0.8696
10625WAT    EPW43208   3.193   3.193   7.177  0.8564  0.4179 -0.4297
10626WAT      O43209   7.444   7.454   0.085 -0.5431 -0.6730 -0.4546
10626WAT     H143210   7.402   7.411   0.022  0.4599 -2.2794 -0.0727
10626WAT     H243211   7.458   7.394   0.146 -1.0182  0.7199  1.1125
10626WAT    EPW43212   7.440   7.439   0.084  0.4064  0.4325  0.6774
10627WAT      O43213   6.792   6.641   1.719 -0.2961 -0.4936 -0.3050
10627WAT     H143214   6.835   6.665   1.647 -0.1942 -0.2749 -0.1717
10627WAT     H243215   6.759   6.716   1.749 -0.0362 -0.5295  0.0721
10627WAT    EPW43216   6.794   6.655   1.713  0.4396 -0.5979 -0.0784
10628WAT      O43217   4.517   4.528   6.276 -0.0177  0.0117  0.4620
10628WAT     H143218   4.510   4.609   6.308  0.4934 -0.3642  1.5836
10628WAT     H243219   4.438   4.494   6.289 -0.2073  0.2919  0.0721
10628WAT    EPW43220   4.504   4.535   6.282  0.6664  0.3810  0.0792
10629WAT      O43221   1.718   6.810   2.409 -0.2876 -0.2360 -0.0334
10629WAT     H143222   1.804   6.802   2.419 -0.3117  1.3277  2.6650
10629WAT     H243223   1.709   6.838   2.327  1.7663 -0.4888 -0.3929
10629WAT    EPW43224   1.729   6.813   2.399 -0.5118  0.4535  0.5472
10630WAT      O43225   2.336   1.920   2.583  0.0813  0.0722 -0.0326
10630WAT     H143226   2.287   1.992   2.593  2.5400  1.8878 -0.3343
10630WAT     H243227   2.287   1.857   2.621 -1.7667  2.0321  1.0668
10630WAT    EPW43228   2.321   1.921   2.590  0.0584  0.5938 -0.4522
10631WAT      O43229   4.571   4.618   1.567 -0.2704  0.6395 -0.5059
10631WAT     H143230   4.484   4.613   1.568 -0.2594  0.3960 -0.7293
10631WAT     H243231   4.594   4.568   1.500  0.0069  1.2818 -0.9078
10631WAT    EPW43232   4.561   4.610   1.557  0.2970  0.3864  0.2839
10632WAT      O43233   3.156   0.146   3.109 -0.1492  0.4356  0.3913
10632WAT     H143234   3.242   0.155   3.096 -0.2301  0.6704  0.0055
10632WAT     H243235   3.125   0.228   3.102 -0.6523  0.1443 -1.3506
10632WAT    EPW43236   3.164   0.160   3.106  0.3457 -0.4618 -0.1322
10633WAT      O43237   2.185   3.656   1.353 -0.4709 -0.0855  0.5625
10633WAT     H143238   2.098   3.649   1.355 -0.5320  0.7621  1.6076
10633WAT     H243239   2.199   3.741   1.335  0.1452 -0.1751  0.5765
10633WAT    EPW43240   2.174   3.668   1.350 -0.5336 -0.4174  0.3452
10634WAT      O43241   5.465   3.559   1.354 -0.1894  0.2553 -0.6111
10634WAT     H143242   5.491   3.483   1.321 -0.1548  0.0957 -0.2217
10634WAT     H243243   5.539   3.602   1.367  0.0233 -0.6657  1.6415
10634WAT    EPW43244   5.480   3.554   1.351 -0.3007 -1.0911 -0.6252
10635WAT      O43245   6.598   1.910   6.030  0.3330 -0.3432 -0.0375
10635WAT     H143246   6.570   1.985   6.065 -0.0902 -0.8497  0.7280
10635WAT     H243247   6.685   1.912   6.044  0.3979  0.2576 -0.5225
10635WAT    EPW43248   6.607   1.921   6.037  0.0038  1.6304  0.1005
10636WAT      O43249   4.408   5.314   2.040 -0.6124 -0.4088  0.3708
10636WAT     H143250   4.362   5.261   2.091 -0.8867 -0.5854 -0.0592
10636WAT     H243251   4.440   5.260   1.978 -0.9767 -0.0658 -0.1268
10636WAT    EPW43252   4.406   5.298   2.038  0.2139  0.7162  0.5579
10637WAT      O43253   0.908   5.681   6.105 -0.0512 -0.1375  0.0164
10637WAT     H143254   0.977   5.674   6.158  0.8611  0.4369 -1.0578
10637WAT     H243255   0.907   5.766   6.085 -0.4318 -0.3274 -0.7948
10637WAT    EPW43256   0.918   5.692   6.110 -0.0812 -0.2393 -0.0040
10638WAT      O43257   3.222   6.349   3.522 -0.0476  0.1586  0.2676
10638WAT     H143258   3.225   6.262   3.525  3.6731  0.1065  1.5509
10638WAT     H243259   3.176   6.370   3.593 -2.0858 -0.6618 -0.7317
10638WAT    EPW43260   3.216   6.339   3.533 -0.0615  0.5353  0.5172
10639WAT      O43261   6.768   4.803   4.430 -0.1921  0.0887 -0.0880
10639WAT     H143262   6.848   4.770   4.421 -0.4255 -0.8175  0.8606
10639WAT     H243263   6.741   4.815   4.348  1.3537  1.6135 -0.4425
10639WAT    EPW43264   6.776   4.800   4.417 -0.2973 -0.4206  0.3827
10640WAT      O43265   4.379   0.061   5.659  0.3052  0.1617  0.2254
10640WAT     H143266   4.306   0.043   5.615  0.6597 -0.3556 -0.1571
10640WAT     H243267   4.378   0.004   5.724 -0.9690  1.8597  1.8097
10640WAT    EPW43268   4.368   0.050   5.662  0.7739 -0.1465  0.6841
10641WAT      O43269   2.709   2.035   3.818  0.2538  0.0058  0.1769
10641WAT     H143270   2.765   1.971   3.839 -0.9623 -0.7688  1.2272
10641WAT     H243271   2.760   2.096   3.781  2.1251  0.1249  2.6849
10641WAT    EPW43272   2.725   2.035   3.816  0.0076 -0.1167 -0.4222
10642WAT      O43273   3.837   2.421   4.935  0.3691 -0.2126 -0.2173
10642WAT     H143274   3.769   2.368   4.948  0.4096 -0.5319 -1.2055
10642WAT     H243275   3.906   2.369   4.943  0.6480  0.3991  2.3372
10642WAT    EPW43276   3.837   2.405   4.938  0.0097  0.1726  0.5914
10643WAT      O43277   2.562   7.067   5.145 -0.2084  0.1054 -0.0305
10643WAT     H143278   2.525   7.122   5.202  0.7950  1.3774 -0.5405
10643WAT     H243279   2.526   7.089   5.069 -0.2889 -0.4165 -0.1454
10643WAT    EPW43280   2.552   7.078   5.143 -0.5313 -0.3494  0.3412
10644WAT      O43281   1.818   2.705   3.582 -0.4740 -0.3558 -0.0452
10644WAT     H143282   1.900   2.675   3.592 -0.2299  0.4947  0.6034
10644WAT     H243283   1.799   2.739   3.660 -1.7882 -1.3413  0.1093
10644WAT    EPW43284   1.827   2.705   3.595 -0.1464 -0.1373  0.4546
10645WAT      O43285   0.304   3.791   3.391 -0.1195 -0.2566  0.2068
10645WAT     H143286   0.235   3.819   3.437 -0.1024  0.5407 -0.2487
10645WAT     H243287   0.309   3.847   3.325  0.4473 -0.8271 -0.2419
10645WAT    EPW43288   0.295   3.803   3.388 -0.1892 -0.1970 -0.3859
10646WAT      O43289   4.430   5.054   7.154 -0.4331 -0.0776  0.4183
10646WAT     H143290   4.493   5.043   7.094 -2.4154  1.0929 -2.0837
10646WAT     H243291   4.369   4.998   7.129 -0.6224 -0.8605  2.5164
10646WAT    EPW43292   4.430   5.044   7.141  0.3727 -0.2842  0.2096
10647WAT      O43293   4.393   4.943   4.850  0.6568 -1.2102  0.3241
10647WAT     H143294   4.380   4.975   4.930  0.2318  0.7328 -0.4601
10647WAT     H243295   4.410   4.858   4.864  1.3262 -0.7733  2.5026
10647WAT    EPW43296   4.393   4.935   4.864 -0.5738 -0.0975 -0.4294
10648WAT      O43297   1.369   6.203   6.796  0.5784 -0.2814  0.0417
10648WAT     H143298   1.423   6.135   6.799  0.9477  0.0142  0.0924
10648WAT     H243299   1.383   6.236   6.716  0.4214 -0.2451  0.0289
10648WAT    EPW43300   1.379   6.198   6.784 -0.2016 -0.0818 -0.5271
10649WAT      O43301   0.019   5.992   0.860 -0.0913  0.0995 -0.4118
10649WAT     H143302   0.053   6.072   0.850 -0.2643  0.1619 -0.5205
10649WAT     H243303   0.080   5.948   0.903 -0.4807  0.6282  0.7019
10649WAT    EPW43304   0.033   5.997   0.865  0.4060  0.1141  0.7095
10650WAT      O43305   3.474   3.202   0.034  0.0468 -0.3355  0.3661
10650WAT     H143306   3.526   3.147   0.077  0.0543  0.5859  1.5910
10650WAT     H243307   3.476   3.172  -0.048  2.4678 -0.3940  0.3515
10650WAT    EPW43308   3.482   3.189   0.028 -0.4183  0.1648 -0.7193
10651WAT      O43309   2.625   6.055   0.670  0.6757 -0.7824  1.1864
10651WAT     H143310   2.628   6.120   0.728  3.4023 -0.0866  0.4429
10651WAT     H243311   2.630   6.096   0.593 -1.9057 -1.7409  0.4062
10651WAT    EPW43312   2.626   6.071   0.667  0.3666 -0.4067 -0.1584
10652WAT      O43313   0.824   2.382   3.582 -0.0821  0.0339  0.8474
10652WAT     H143314   0.765   2.426   3.629 -0.1375  0.5283  0.3339
10652WAT     H243315   0.781   2.363   3.509  0.8207  1.7272 -0.1831
10652WAT    EPW43316   0.809   2.386   3.578 -0.1149 -0.3161 -0.0407
10653WAT      O43317   1.643   6.885   1.881  0.1506 -0.2438 -0.0655
10653WAT     H143318   1.601   6.958   1.858  1.9653  0.5186 -1.1780
10653WAT     H243319   1.642   6.837   1.808  1.8885  0.1627 -0.4013
10653WAT    EPW43320   1.636   6.889   1.866  0.1339  0.5462  0.0520
10654WAT      O43321   6.642   6.818   2.739  0.0473 -0.9443 -0.2885
10654WAT     H143322   6.712   6.870   2.737  0.2219 -1.2099 -1.2931
10654WAT     H243323   6.579   6.867   2.704 -0.4236 -0.5139  1.0953
10654WAT    EPW43324   6.643   6.833   2.734  0.4085  0.2994 -0.0302
10655WAT      O43325   1.250   5.257   2.687  0.6755  0.4028 -0.2737
10655WAT     H143326   1.234   5.309   2.619  1.2030 -0.8697 -1.4203
10655WAT     H243327   1.335   5.267   2.701  0.2410  2.2936  1.6746
10655WAT    EPW43328   1.260   5.266   2.679  0.4990  0.4044 -0.3575
10656WAT      O43329   2.540   1.216   5.614 -0.4841 -0.1246 -0.2383
10656WAT     H143330   2.579   1.291   5.591  0.4513 -0.7018 -0.5873
10656WAT     H243331   2.511   1.232   5.694 -0.8728  0.8247 -0.5474
10656WAT    EPW43332   2.541   1.230   5.622 -0.0163 -0.2331  0.2244
10657WAT      O43333   6.662   6.869   0.161 -0.0103 -0.3452 -0.3383
10657WAT     H143334   6.609   6.938   0.171  2.2971  1.3357  1.7461
10657WAT     H243335   6.719   6.896   0.102  1.2690 -0.1501  0.9311
10657WAT    EPW43336   6.662   6.883   0.154  0.0410 -0.1596 -0.3110
10658WAT      O43337   1.190   0.539   4.519 -0.6155 -0.3775  0.6112
10658WAT     H143338   1.271   0.550   4.548 -0.6820 -0.7572  0.9475
10658WAT     H243339   1.189   0.583   4.444 -1.0187  2.3853  2.0994
10658WAT    EPW43340   1.202   0.547   4.512  0.2390  0.6613 -0.1599
10659WAT      O43341   3.214   6.958   4.994 -0.1878  0.0125 -0.5452
10659WAT     H143342   3.210   7.016   4.929 -0.1088  0.0393 -0.5270
10659WAT     H243343   3.259   7.001   5.055 -0.8726  0.2545 -0.1954
10659WAT    EPW43344   3.220   6.973   4.994  0.3465 -0.5673 -0.0225
10660WAT      O43345   7.442   3.868   7.068  0.0849  0.0543 -0.4977
10660WAT     H143346   7.364   3.830   7.058  0.5545 -0.6896 -1.4490
10660WAT     H243347   7.498   3.803   7.056  0.8800 -0.0977  3.0371
10660WAT    EPW43348   7.438   3.853   7.065  0.0739  0.1862 -0.8368
10661WAT      O43349   1.671   1.173   5.226 -0.6028  0.1487 -0.1273
10661WAT     H143350   1.690   1.094   5.194  0.7392  0.8198 -1.0993
10661WAT     H243351   1.727   1.182   5.293 -0.6304  0.3437 -0.1294
10661WAT    EPW43352   1.682   1.163   5.231 -0.7052 -0.3751  0.6837
10662WAT      O43353   2.941   7.481   0.977 -0.8849  0.5313 -0.2917
10662WAT     H143354   2.903   7.557   0.956  0.7898  1.6171  0.4599
10662WAT     H243355   3.002   7.503   1.035 -1.2224 -1.5824  0.9789
10662WAT    EPW43356   2.944   7.495   0.982 -0.3218 -0.3094 -0.5553
10663WAT      O43357   0.029   0.705   3.081  0.1053  0.0504  0.1770
10663WAT     H143358   0.110   0.737   3.091  0.2179 -0.4520  0.8923
10663WAT     H243359  -0.021   0.764   3.122  0.0904  0.3846 -0.3031
10663WAT    EPW43360   0.034   0.719   3.088 -0.4976  0.1651 -0.2153
10664WAT      O43361   2.195   5.814   3.126  0.1905  0.5785  0.7536
10664WAT     H143362   2.217   5.818   3.042 -0.4103  0.6638  0.5941
10664WAT     H243363   2.210   5.731   3.148 -0.1370  0.4299  0.4224
10664WAT    EPW43364   2.201   5.803   3.117  0.2793 -0.5340 -0.4436
10665WAT      O43365   2.395   6.561   6.581 -0.4887  0.2928 -0.5608
10665WAT     H143366   2.332   6.619   6.595 -0.2822  0.6436 -1.0494
10665WAT     H243367   2.458   6.608   6.542  1.0212  0.4797  1.8611
10665WAT    EPW43368   2.395   6.577   6.577 -0.1721 -0.5222  0.1492
10666WAT      O43369   2.017   3.523   0.134 -0.3577  0.1671 -0.3542
10666WAT     H143370   1.969   3.507   0.205  1.9027 -0.7560  1.0763
10666WAT     H243371   1.966   3.495   0.068 -1.0175 -2.7464  1.2055
10666WAT    EPW43372   2.002   3.516   0.135 -0.0270  0.0188  0.4038
10667WAT      O43373   6.650   3.496   2.023  0.1328  0.2830  0.1823
10667WAT     H143374   6.616   3.428   2.065 -1.4574  0.1386 -1.2385
10667WAT     H243375   6.616   3.565   2.064 -0.2414  0.1766  0.0496
10667WAT    EPW43376   6.640   3.496   2.035  0.1261  0.4416  0.9215
10668WAT      O43377   6.726   2.940   5.164  0.3585 -0.9622 -0.4446
10668WAT     H143378   6.673   2.979   5.107  0.0677 -1.3922 -0.4781
10668WAT     H243379   6.682   2.944   5.239  1.4953  1.2078  0.2021
10668WAT    EPW43380   6.712   2.946   5.167  0.4022 -0.1323 -0.1363
10669WAT      O43381   3.721   2.080   3.740 -0.0532 -0.5905 -0.1796
10669WAT     H143382   3.674   2.091   3.812  1.8213 -1.3185  1.2277
10669WAT     H243383   3.664   2.097   3.676 -2.2652 -1.6543  1.3871
10669WAT    EPW43384   3.706   2.084   3.741 -0.2337 -0.3113 -0.3218
10670WAT      O43385   4.566   0.616   5.415  0.1439 -0.2499 -0.5664
10670WAT     H143386   4.617   0.654   5.355 -0.0848  0.3296 -0.4021
10670WAT     H243387   4.491   0.603   5.374  0.5315 -1.4947 -0.9396
10670WAT    EPW43388   4.563   0.619   5.400 -0.4424 -0.8549 -0.3082
10671WAT      O43389   3.522   0.931   5.729  0.1015 -0.1184 -0.3867
10671WAT     H143390   3.467   0.982   5.773  1.4010 -0.3960  1.6868
10671WAT     H243391   3.481   0.917   5.653 -1.6318  1.4990  0.1860
10671WAT    EPW43392   3.508   0.936   5.724  0.9298  0.3050 -0.6432
10672WAT      O43393   7.031   0.479   3.758  0.1902 -0.0505  0.2189
10672WAT     H143394   7.071   0.413   3.717 -0.9914 -1.2430  0.8853
10672WAT     H243395   7.085   0.501   3.822  0.2299 -0.9730  0.5142
10672WAT    EPW43396   7.045   0.473   3.761  0.1709  0.1244  0.9556
10673WAT      O43397   4.524   7.547   5.424 -0.0098 -0.4443  0.0769
10673WAT     H143398   4.584   7.516   5.479  2.0197  1.8553 -0.6363
10673WAT     H243399   4.486   7.611   5.468 -0.0617 -0.1643 -0.3648
10673WAT    EPW43400   4.528   7.552   5.439  0.3529 -0.2661  0.1161
10674WAT      O43401   0.248   0.416   6.875  0.2751 -0.2470  0.4418
10674WAT     H143402   0.259   0.499   6.849 -1.0344 -0.6575 -1.6457
10674WAT     H243403   0.279   0.416   6.957 -0.0910  2.4081  0.6673
10674WAT    EPW43404   0.254   0.429   6.883  0.5895  0.5397  0.2168
10675WAT      O43405   5.350   4.997   1.120  0.4479  0.2084 -0.1115
10675WAT     H143406   5.417   4.999   1.176  0.0700  0.2842  0.3394
10675WAT     H243407   5.309   5.072   1.135 -0.6512 -0.5274  0.7398
10675WAT    EPW43408   5.354   5.008   1.131  0.5112 -0.0774  0.2923
10676WAT      O43409   3.740   4.535   2.544 -0.0713 -0.1094  0.0294
10676WAT     H143410   3.747   4.462   2.497 -0.3289  0.5932 -1.1325
10676WAT     H243411   3.668   4.522   2.592  0.3026 -0.9072  0.4003
10676WAT    EPW43412   3.730   4.522   2.544  0.2254 -0.1705  0.7824
10677WAT      O43413   1.962   0.033   6.123 -0.2387  0.0712  0.0293
10677WAT     H143414   1.999   0.027   6.044 -2.5808  1.8587 -1.3595
10677WAT     H243415   1.909  -0.036   6.126  0.0847 -0.1729  0.1986
10677WAT    EPW43416   1.959   0.022   6.112 -0.1250 -0.0334 -0.6210
10678WAT      O43417   7.471   4.497   5.406 -0.2619 -0.0972  0.3408
10678WAT     H143418   7.515   4.548   5.462 -1.3806  0.9034  0.3472
10678WAT     H243419   7.389   4.528   5.410 -0.3459  0.1840 -1.9928
10678WAT    EPW43420   7.466   4.509   5.415 -0.2501  0.3184 -0.0372
10679WAT      O43421   6.788   6.096   1.391  0.3981  0.5350 -0.5262
10679WAT     H143422   6.737   6.094   1.462  1.2719  0.3504  0.1041
10679WAT     H243423   6.806   6.012   1.376  0.4033  0.5901 -0.8279
10679WAT    EPW43424   6.783   6.083   1.399 -0.3398 -0.0699 -0.2915
10680WAT      O43425   4.967   2.874   6.067 -0.4593  0.2772 -0.3291
10680WAT     H143426   4.929   2.851   6.142 -1.1550  0.5690 -0.5831
10680WAT     H243427   4.943   2.811   6.012  2.3116 -1.5006  0.2859
10680WAT    EPW43428   4.958   2.861   6.070 -0.1609  0.0911 -0.0651
10681WAT      O43429   0.781   2.170   2.284  0.2337 -0.2224  0.4348
10681WAT     H143430   0.808   2.133   2.209  1.2625  2.4421 -0.6622
10681WAT     H243431   0.791   2.107   2.343 -0.5283 -2.4233 -1.6192
10681WAT    EPW43432   0.787   2.156   2.281 -0.2317 -0.1809  0.2256
10682WAT      O43433   0.816   6.774   4.805  0.5491 -0.4964  0.6354
10682WAT     H143434   0.784   6.783   4.885 -2.7558  0.9950 -0.6449
10682WAT     H243435   0.749   6.741   4.760  1.8211 -0.0107 -1.7966
10682WAT    EPW43436   0.801   6.770   4.810  0.5952  0.4399  0.3462
10683WAT      O43437   1.785   4.904   7.338 -0.0096  0.1439 -0.3635
10683WAT     H143438   1.805   4.820   7.348  1.1177  0.3647 -0.5819
10683WAT     H243439   1.781   4.934   7.420  0.0157 -0.0344 -0.2969
10683WAT    EPW43440   1.787   4.896   7.352  0.1728  0.4569 -0.6225
10684WAT      O43441   3.038   7.037   1.018  0.3824  0.6709  0.5237
10684WAT     H143442   3.104   6.979   1.017 -1.2560 -1.4013  2.2332
10684WAT     H243443   3.064   7.098   0.962  2.8423 -1.0395 -0.3966
10684WAT    EPW43444   3.052   7.037   1.010  0.0751  0.3485  0.5109
10685WAT      O43445   5.774   3.465   5.975  0.1446 -0.7277  0.3959
10685WAT     H143446   5.860   3.481   5.968  0.0056 -0.3999 -0.7136
10685WAT     H243447   5.767   3.425   6.053  1.4933 -2.0176 -0.0956
10685WAT    EPW43448   5.786   3.462   5.986  0.1085 -0.3359 -0.0424
10686WAT      O43449   6.362   2.463   6.601 -0.5944 -0.2867  0.4552
10686WAT     H143450   6.357   2.487   6.685 -1.6943  1.1775  0.0072
10686WAT     H243451   6.424   2.513   6.568 -2.1600  1.3130 -0.2333
10686WAT    EPW43452   6.370   2.474   6.609  0.5731 -0.3538  0.2450
10687WAT      O43453   6.491   5.320   1.496  0.7600 -0.0668  0.2251
10687WAT     H143454   6.522   5.302   1.417 -0.5993 -1.5140 -0.0454
10687WAT     H243455   6.450   5.397   1.485  0.0633 -0.5404 -0.6685
10687WAT    EPW43456   6.489   5.329   1.482 -0.0923  0.3799  0.4865
10688WAT      O43457   6.434   4.162   1.011  0.0855 -0.1734 -0.1126
10688WAT     H143458   6.480   4.106   1.060  0.4961  0.4085  0.1754
10688WAT     H243459   6.391   4.210   1.069  0.5758  0.5235 -0.3107
10688WAT    EPW43460   6.434   4.161   1.026 -0.6243 -0.3533 -0.4595
10689WAT      O43461   0.683   0.778   5.856 -0.3330  0.2571  0.0443
10689WAT     H143462   0.768   0.800   5.852 -0.5793  1.0911 -3.1056
10689WAT     H243463   0.645   0.850   5.887 -0.1653  1.1914 -1.7651
10689WAT    EPW43464   0.690   0.792   5.860  0.3725 -0.8192  0.0984
10690WAT      O43465   3.522   4.355   3.817  0.2740 -0.0472 -0.5245
10690WAT     H143466   3.508   4.370   3.902  1.1362  0.6948 -0.4904
10690WAT     H243467   3.540   4.270   3.814 -0.4212 -0.2154 -0.0576
10690WAT    EPW43468   3.523   4.345   3.829 -0.4029 -0.2171 -0.0557
10691WAT      O43469   3.047   6.693   5.362  0.0846  0.1928 -0.2686
10691WAT     H143470   2.970   6.692   5.404  0.2077  1.0977  0.0022
10691WAT     H243471   3.102   6.657   5.419 -0.2874 -1.2854 -0.8041
10691WAT    EPW43472   3.044   6.688   5.377 -0.0992  0.1226 -0.2352
10692WAT      O43473   6.934   0.216   7.529  0.2296  0.2464  0.1715
10692WAT     H143474   6.870   0.244   7.581  0.3526  2.5099 -0.7822
10692WAT     H243475   6.999   0.197   7.585 -0.9355 -1.2737  1.0773
10692WAT    EPW43476   6.934   0.217   7.545 -0.7802  0.1516  0.3975
10693WAT      O43477   4.522   5.086   4.464  0.0339  0.3071  0.0959
10693WAT     H143478   4.462   5.088   4.527 -0.0804 -1.0808  0.0504
10693WAT     H243479   4.475   5.077   4.391  0.2205  0.8643 -0.0980
10693WAT    EPW43480   4.506   5.085   4.462 -0.9016 -0.0183 -0.0527
10694WAT      O43481   2.316   3.917   7.208  0.5579 -0.1921 -0.0695
10694WAT     H143482   2.305   3.835   7.234  0.5722 -0.4241 -0.7808
10694WAT     H243483   2.398   3.936   7.230  0.0040  0.2526  1.7497
10694WAT    EPW43484   2.326   3.908   7.215  0.0467  0.1867 -0.0347
10695WAT      O43485   6.938   6.226   1.603 -0.1715  0.3701 -0.0536
10695WAT     H143486   6.940   6.314   1.605  0.2063  0.3398  1.4796
10695WAT     H243487   6.894   6.209   1.529  0.3087  1.8333 -0.7204
10695WAT    EPW43488   6.931   6.237   1.592  0.3821  0.1697 -0.4719
10696WAT      O43489   6.962   2.771   5.425 -0.0964  0.0518  0.0513
10696WAT     H143490   7.023   2.710   5.422 -0.6364 -0.4594 -0.6928
10696WAT     H243491   7.006   2.842   5.452  0.6217 -0.5309  0.4624
10696WAT    EPW43492   6.978   2.773   5.429  0.4830  0.2932  0.0782
10697WAT      O43493   4.459   0.238   0.357 -0.4259 -0.1611 -0.3411
10697WAT     H143494   4.447   0.191   0.429 -1.8973  0.9484  0.1959
10697WAT     H243495   4.433   0.318   0.380  0.0521  0.4489 -1.8075
10697WAT    EPW43496   4.453   0.243   0.371  0.4204  0.6932  0.7768
10698WAT      O43497   1.576   1.686   6.223  0.4446  0.6612  0.1853
10698WAT     H143498   1.565   1.656   6.142  0.3620  1.3325 -0.0583
10698WAT     H243499   1.551   1.619   6.273  1.3130 -0.0637 -0.3294
10698WAT    EPW43500   1.571   1.672   6.218  0.5024 -0.1801 -0.9747
10699WAT      O43501   4.165   4.672   7.006  0.2618  0.4081  0.0038
10699WAT     H143502   4.211   4.746   6.998 -1.0849  1.5145  1.6596
10699WAT     H243503   4.208   4.629   7.068  0.9474 -0.1479 -0.8386
10699WAT    EPW43504   4.178   4.677   7.014 -0.3645 -0.4611  0.1253
10700WAT      O43505   6.974   5.656   7.470 -0.4411  0.0692  0.6766
10700WAT     H143506   6.983   5.717   7.408 -2.0561 -0.1739  0.1562
10700WAT     H243507   7.053   5.653   7.507  0.4977  0.4691 -1.1412
10700WAT    EPW43508   6.987   5.664   7.466 -1.0286 -0.5259  0.2856
10701WAT      O43509   3.877   1.379   3.427  0.2764  0.0573 -0.2790
10701WAT     H143510   3.868   1.433   3.359  0.3511 -1.8423 -1.8695
10701WAT     H243511   3.962   1.381   3.444 -0.0003  2.1146  1.1789
10701WAT    EPW43512   3.888   1.387   3.419  0.0511 -0.3062 -0.1329
10702WAT      O43513   5.035   1.596   1.002  0.1207 -0.1883  0.6854
10702WAT     H143514   5.101   1.634   1.044  1.6580 -0.4846 -1.3343
10702WAT     H243515   5.030   1.518   1.039  1.7014 -0.5849  0.1438
10702WAT    EPW43516   5.044   1.590   1.014  0.1191 -0.5361 -0.0372
10703WAT      O43517   0.450   7.451   4.616 -0.4210  0.2061  0.8307
10703WAT     H143518   0.493   7.450   4.692  0.8052 -0.0476  0.1587
10703WAT     H243519   0.511   7.428   4.558 -1.1799  0.9876 -0.3136
10703WAT    EPW43520   0.466   7.447   4.619 -0.2973  0.3137  0.1942
10704WAT      O43521   3.248   4.014   0.934 -0.0635 -0.0250  0.3211
10704WAT     H143522   3.172   4.049   0.957 -0.3950 -0.2234 -0.4474
10704WAT     H243523   3.282   4.073   0.880 -0.3740 -0.6199 -0.5425
10704WAT    EPW43524   3.242   4.028   0.929  0.1461 -0.1219  0.6987
10705WAT      O43525   3.530   6.214   2.470 -0.4708 -0.0514  0.4141
10705WAT     H143526   3.486   6.247   2.402 -0.6016 -0.6871  0.1769
10705WAT     H243527   3.531   6.128   2.453  0.9773 -0.0373  0.3430
10705WAT    EPW43528   3.524   6.206   2.457 -0.5804  0.9320 -0.2480
10706WAT      O43529   4.331   6.784   2.021 -0.5497 -0.8798  0.2320
10706WAT     H143530   4.415   6.793   2.042 -0.3310  0.4981 -1.0845
10706WAT     H243531   4.320   6.697   2.020  1.1666 -1.1285 -0.7456
10706WAT    EPW43532   4.342   6.772   2.024 -0.0635 -0.2596 -0.4560
10707WAT      O43533   2.811   4.489   4.130 -0.0361  0.3479  0.8951
10707WAT     H143534   2.742   4.508   4.081 -0.0526 -2.2384 -0.1961
10707WAT     H243535   2.864   4.558   4.117 -1.2623  1.1099 -0.3870
10707WAT    EPW43536   2.809   4.502   4.121 -0.3171 -0.4431 -0.5392
10708WAT      O43537   1.457   2.041   6.471  0.2012  0.4383  0.3273
10708WAT     H143538   1.462   2.126   6.451  1.2019  0.1943 -0.5504
10708WAT     H243539   1.518   2.004   6.421 -1.9058 -1.1656 -1.2910
10708WAT    EPW43540   1.467   2.048   6.460 -0.1212  0.1921 -0.0681
10709WAT      O43541   7.497   2.697   7.348 -0.4166 -0.1720 -0.0744
10709WAT     H143542   7.422   2.664   7.377 -0.5173 -0.9873 -1.1985
10709WAT     H243543   7.487   2.699   7.261  0.4131  0.8314 -0.1753
10709WAT    EPW43544   7.484   2.693   7.340 -0.2855 -0.0224 -0.4626
10710WAT      O43545   4.072   6.892   4.212  0.1692 -0.2865 -0.6973
10710WAT     H143546   3.986   6.877   4.209  0.3817 -2.0879  0.6079
10710WAT     H243547   4.096   6.860   4.290  1.9697  0.5248 -0.8598
10710WAT    EPW43548   4.063   6.885   4.223 -0.0353  0.0556  0.1078
10711WAT      O43549   1.387   4.723   0.210 -0.2540  0.0287 -0.1202
10711WAT     H143550   1.311   4.705   0.172 -0.6020 -1.3913  1.1561
10711WAT     H243551   1.366   4.738   0.293  0.6230  1.9175 -0.1813
10711WAT    EPW43552   1.373   4.722   0.217 -0.1911 -0.3195 -0.6834
10712WAT      O43553   2.484   7.577   3.276  0.1235 -0.3058  0.0598
10712WAT     H143554   2.520   7.501   3.301  1.4716  0.4020  0.3774
10712WAT     H243555   2.546   7.635   3.294 -1.0955  0.9518  0.3290
10712WAT    EPW43556   2.498   7.574   3.282 -0.0441 -0.2546  0.4227
10713WAT      O43557   4.915   1.812   3.642  0.2447 -0.0776  0.1070
10713WAT     H143558   4.959   1.886   3.628  1.3543 -0.8798 -0.8800
10713WAT     H243559   4.926   1.767   3.568 -0.0606 -1.3920  0.8284
10713WAT    EPW43560   4.923   1.816   3.629  0.0388  0.0887 -0.4490
10714WAT      O43561   0.279   6.044   0.281 -0.2467 -0.1021  0.0505
10714WAT     H143562   0.288   6.117   0.327 -1.6073  0.1557 -0.0624
10714WAT     H243563   0.332   6.056   0.212  1.0369 -0.0746  1.0111
10714WAT    EPW43564   0.288   6.056   0.277 -0.3829 -0.6904  0.3466
10715WAT      O43565   4.858   2.095   0.589 -0.0323  0.4451  0.5900
10715WAT     H143566   4.810   2.053   0.649 -0.7136  1.0584  0.4861
10715WAT     H243567   4.801   2.147   0.549  0.7724  1.4436  0.6802
10715WAT    EPW43568   4.843   2.096   0.592  0.1567  0.1681  0.1513
10716WAT      O43569   5.839   1.871   7.297  0.0155  0.2721  0.0823
10716WAT     H143570   5.756   1.862   7.320 -0.0550 -0.6567 -0.4814
10716WAT     H243571   5.882   1.869   7.373 -0.3802 -0.5132  0.2948
10716WAT    EPW43572   5.833   1.869   7.312  0.2545  0.0954  0.7849
10717WAT      O43573   6.326   3.051   4.399 -0.4294  0.1389 -0.0202
10717WAT     H143574   6.250   3.075   4.435  0.8084  1.8504  1.6441
10717WAT     H243575   6.350   2.982   4.445 -1.0933 -0.6285 -0.7836
10717WAT    EPW43576   6.318   3.045   4.411  0.7878 -0.1387 -0.0842
10718WAT      O43577   6.184   5.549   3.719 -0.2816 -0.7844  0.6060
10718WAT     H143578   6.267   5.569   3.698 -0.2035 -2.2153 -0.5533
10718WAT     H243579   6.192   5.503   3.792 -0.1366 -0.3064  0.9024
10718WAT    EPW43580   6.198   5.545   3.727  0.0376  0.5513 -0.2173
10719WAT      O43581   3.991   3.063   5.455 -0.0034 -0.0390  0.2096
10719WAT     H143582   3.952   3.074   5.378  1.7609 -0.2264 -0.7706
10719WAT     H243583   3.984   3.141   5.493  0.9772  0.7419 -1.1076
10719WAT    EPW43584   3.984   3.076   5.450  0.5408 -0.4049  0.5447
10720WAT      O43585   1.625   0.684   7.450 -0.2663  0.0449 -0.4130
10720WAT     H143586   1.702   0.702   7.414  0.2362  0.6268  0.8779
10720WAT     H243587   1.644   0.673   7.535 -1.6523  0.6588  0.0064
10720WAT    EPW43588   1.639   0.685   7.457 -0.6957 -0.3872  0.3501
10721WAT      O43589   6.754   5.511   2.145  0.0423 -0.2946  0.1671
10721WAT     H143590   6.678   5.551   2.129 -1.4222 -3.1100 -0.5517
10721WAT     H243591   6.734   5.426   2.141  2.8581 -1.1803  1.8564
10721WAT    EPW43592   6.740   5.504   2.142 -0.3865  0.1416  0.0910
10722WAT      O43593   3.901   1.480   5.754  0.1908  0.2625  0.4436
10722WAT     H143594   3.943   1.534   5.699 -0.1747 -0.0056 -0.1071
10722WAT     H243595   3.862   1.423   5.701 -1.0626  0.6361  0.9428
10722WAT    EPW43596   3.902   1.480   5.738  0.5915  0.0557  0.0911
10723WAT      O43597   3.906   1.240   2.832 -0.4564  0.1782 -0.1181
10723WAT     H143598   3.896   1.172   2.779  0.1431  0.5842 -0.7579
10723WAT     H243599   3.840   1.231   2.889  0.8028 -2.1224  1.1262
10723WAT    EPW43600   3.895   1.229   2.833 -0.6155 -0.1476 -0.4299
10724WAT      O43601   6.070   6.417   3.300 -0.2093  0.4912  0.1875
10724WAT     H143602   6.023   6.363   3.251  0.3307  2.2673 -2.5335
10724WAT     H243603   6.150   6.381   3.298 -0.5737 -0.4361  1.4400
10724WAT    EPW43604   6.075   6.404   3.292 -0.3589 -0.0800 -0.5368
10725WAT      O43605   1.227   2.978   2.982 -0.2310 -0.1973 -0.1452
10725WAT     H143606   1.195   3.059   2.989 -0.2503 -0.0052 -1.9716
10725WAT     H243607   1.313   2.989   2.988 -0.2615 -0.1401  0.2353
10725WAT    EPW43608   1.235   2.992   2.984 -0.2862  0.0714 -0.0746
10726WAT      O43609   7.166   2.400   7.205  0.8153 -0.2079 -0.4568
10726WAT     H143610   7.084   2.369   7.212  0.4989  0.9109  2.0723
10726WAT     H243611   7.160   2.459   7.141 -0.6293  0.4660  0.2440
10726WAT    EPW43612   7.153   2.404   7.196 -0.0257  0.7747 -0.2693
10727WAT      O43613   6.710   6.318   3.086 -0.2296 -0.5715  0.1321
10727WAT     H143614   6.730   6.400   3.063  1.7259 -0.8265  0.8075
10727WAT     H243615   6.623   6.316   3.079 -0.2577  1.3349 -0.6165
10727WAT    EPW43616   6.700   6.330   3.081  0.0021  0.5527 -0.3746
10728WAT      O43617   0.259   4.612   5.565 -0.1657  0.2037  0.2865
10728WAT     H143618   0.325   4.627   5.510 -1.3376  0.7960 -0.9941
10728WAT     H243619   0.299   4.606   5.643  1.8193 -2.8169 -0.7812
10728WAT    EPW43620   0.275   4.613   5.568  0.2373  0.2044 -0.0467
10729WAT      O43621   0.629   4.591   6.127 -0.2685  0.2134 -0.4171
10729WAT     H143622   0.576   4.579   6.195 -0.5663 -1.2895 -0.8733
10729WAT     H243623   0.604   4.668   6.094 -0.1899  0.9118  1.0822
10729WAT    EPW43624   0.618   4.600   6.132 -0.1641 -0.2676 -0.1657
10730WAT      O43625   1.136   4.101   6.260 -0.0605 -0.1112  0.2916
10730WAT     H143626   1.070   4.103   6.203 -0.3267  1.1845  0.6187
10730WAT     H243627   1.097   4.104   6.337  0.3572  1.5501  0.4822
10730WAT    EPW43628   1.120   4.102   6.263  0.2103 -0.4035  0.6371
10731WAT      O43629   1.329   4.765   0.459 -0.2389 -0.6921 -0.0831
10731WAT     H143630   1.256   4.721   0.476 -1.5995  1.4917  0.1901
10731WAT     H243631   1.305   4.849   0.469  1.8932  0.1846 -1.5884
10731WAT    EPW43632   1.315   4.771   0.463  0.1553 -1.0242  0.3865
10732WAT      O43633   1.230   6.421   6.594 -0.5652  0.3125 -0.0762
10732WAT     H143634   1.165   6.471   6.623 -0.5665  0.7416 -0.7973
10732WAT     H243635   1.204   6.398   6.514 -0.9824 -1.6145  0.5700
10732WAT    EPW43636   1.217   6.425   6.586  0.1850  0.5395  0.1601
10733WAT      O43637   6.546   6.197   1.239 -0.7969 -0.3242  0.1087
10733WAT     H143638   6.571   6.267   1.285  0.2711  0.3792 -1.4545
10733WAT     H243639   6.478   6.166   1.284 -1.4121  1.8287  0.7653
10733WAT    EPW43640   6.540   6.203   1.252 -0.0965  0.4237 -0.2915
10734WAT      O43641   3.020   4.832   0.800 -0.1312 -0.6175 -0.3042
10734WAT     H143642   2.963   4.782   0.758 -0.5255 -0.4058 -0.0224
10734WAT     H243643   3.004   4.912   0.768  1.0503 -0.7731 -1.3705
10734WAT    EPW43644   3.009   4.837   0.789  0.3789 -0.2477  0.3758
10735WAT      O43645   4.515   7.261   2.901  0.4289 -0.6233 -0.3593
10735WAT     H143646   4.582   7.237   2.951 -0.5995 -2.8164  0.0577
10735WAT     H243647   4.514   7.201   2.838  0.9680  1.4017 -2.4267
10735WAT    EPW43648   4.525   7.249   2.899 -0.3916  0.6313  0.1505
10736WAT      O43649   3.480   2.193   1.775  0.5231  0.3864  0.8103
10736WAT     H143650   3.566   2.204   1.761  1.0203 -3.1604  0.0150
10736WAT     H243651   3.478   2.148   1.850 -0.6226  0.2237  0.6929
10736WAT    EPW43652   3.492   2.188   1.784 -0.6468  0.4363 -0.8619
10737WAT      O43653   5.380   6.769   4.503 -1.2303  0.3769 -0.6230
10737WAT     H143654   5.446   6.777   4.447 -1.7855 -0.8096 -1.4860
10737WAT     H243655   5.378   6.683   4.521 -2.6057  0.3600 -0.7251
10737WAT    EPW43656   5.389   6.757   4.497  0.8518 -0.0093 -0.5145
10738WAT      O43657   1.182   6.626   0.950 -0.4439  0.9920  0.3970
10738WAT     H143658   1.265   6.600   0.958 -1.3483 -2.4603  0.1541
10738WAT     H243659   1.152   6.625   1.032 -0.7093  0.3545  0.2971
10738WAT    EPW43660   1.190   6.622   0.963 -0.1463 -0.5531 -0.5791
10739WAT      O43661   1.400   0.804   0.062  0.2385 -0.2666  0.0142
10739WAT     H143662   1.460   0.857   0.096 -0.1735  0.3419 -0.1894
10739WAT     H243663   1.401   0.824  -0.023 -0.2668 -0.2339  0.0118
10739WAT    EPW43664   1.409   0.815   0.054  0.6362  0.3809 -0.2793
10740WAT      O43665   5.499   0.509   4.588  0.0835  0.0160  0.2491
10740WAT     H143666   5.534   0.551   4.656  1.8640 -1.1672  0.1152
10740WAT     H243667   5.457   0.442   4.625 -1.9618  1.2528  0.3821
10740WAT    EPW43668   5.498   0.506   4.603 -0.1147 -0.3851  0.7403
10741WAT      O43669   6.824   1.313   3.289  0.2494 -0.2113 -0.2436
10741WAT     H143670   6.823   1.395   3.259 -0.9694 -1.0764 -2.8316
10741WAT     H243671   6.807   1.323   3.374 -2.0743  2.1310 -0.8490
10741WAT    EPW43672   6.821   1.327   3.297  0.1414 -0.1543 -0.4779
10742WAT      O43673   6.492   3.647   4.006 -0.1399  0.2003 -0.0106
10742WAT     H143674   6.407   3.631   4.016  0.4084 -2.8125  0.8607
10742WAT     H243675   6.517   3.590   3.945  1.3667  0.6333  0.1481
10742WAT    EPW43676   6.483   3.636   3.998  0.5024 -0.1157 -0.4201
10743WAT      O43677   4.895   5.443   1.146  0.7811  0.3185  0.0668
10743WAT     H143678   4.856   5.369   1.172  0.2982  0.0026 -1.4681
10743WAT     H243679   4.956   5.456   1.207 -0.5868 -0.0958  1.6235
10743WAT    EPW43680   4.898   5.434   1.159 -0.2238 -0.3220  0.3891
10744WAT      O43681   0.753   2.405   2.672  0.2428 -0.2411  0.0890
10744WAT     H143682   0.778   2.450   2.743  0.5774  0.4870 -0.4766
10744WAT     H243683   0.708   2.338   2.705 -0.0524  0.3755  0.9686
10744WAT    EPW43684   0.750   2.402   2.688  0.5162  0.3798 -0.4653
10745WAT      O43685   0.822   2.390   4.864  0.4381  0.4205 -0.2657
10745WAT     H143686   0.900   2.361   4.890  0.1111 -0.6283 -0.4341
10745WAT     H243687   0.804   2.340   4.795 -0.5878  0.3496  0.0462
10745WAT    EPW43688   0.831   2.378   4.858 -0.2725 -0.3496  0.1355
10746WAT      O43689   2.870   4.335   6.676  0.2795 -0.2326 -0.3540
10746WAT     H143690   2.930   4.302   6.730  0.0915 -0.2798 -0.1719
10746WAT     H243691   2.890   4.420   6.672  1.0320 -0.4299 -1.1686
10746WAT    EPW43692   2.882   4.343   6.683 -0.6398 -0.8297  0.2007
10747WAT      O43693   3.784   2.456   0.124 -0.0254  0.3335  0.0214
10747WAT     H143694   3.857   2.468   0.077  0.5717  2.0820  1.2692
10747WAT     H243695   3.813   2.440   0.204 -0.9905  0.9351  0.5204
10747WAT    EPW43696   3.799   2.456   0.129  0.0550  0.1922 -0.2690
10748WAT      O43697   6.142   0.957   5.910  0.0104 -0.2411  0.1044
10748WAT     H143698   6.079   1.000   5.952 -0.3482 -1.3063  0.6964
10748WAT     H243699   6.198   0.936   5.973 -0.2457 -1.3588 -0.0088
10748WAT    EPW43700   6.141   0.960   5.925  0.1838  0.1834  0.1547
10749WAT      O43701   4.669   7.417   0.041 -0.3405 -0.2933  0.2246
10749WAT     H143702   4.614   7.453   0.097 -0.6007  1.3024 -0.9907
10749WAT     H243703   4.742   7.406   0.087 -0.9581 -0.3397  1.2283
10749WAT    EPW43704   4.672   7.420   0.056 -0.1060 -0.7040 -0.7248
10750WAT      O43705   1.103   2.056   2.713 -0.2255 -0.1336  0.0539
10750WAT     H143706   1.072   2.130   2.679  1.5873  1.7274  2.1189
10750WAT     H243707   1.177   2.043   2.668  0.7556  0.8063  1.3037
10750WAT    EPW43708   1.110   2.065   2.701 -0.5613  0.0856  0.9212
10751WAT      O43709   3.447   6.454   0.343 -0.3683 -0.0557  0.3754
10751WAT     H143710   3.384   6.438   0.285  0.2256  1.3677 -0.7264
10751WAT     H243711   3.403   6.468   0.417 -1.3473  0.6963 -0.3151
10751WAT    EPW43712   3.431   6.454   0.345  0.5619  0.2531  0.4714
10752WAT      O43713   6.749   5.482   1.285  0.1647  0.2692 -0.1341
10752WAT     H143714   6.831   5.460   1.269 -0.0867 -0.8021 -0.0470
10752WAT     H243715   6.729   5.538   1.221  1.0635  0.8149  0.0542
10752WAT    EPW43716   6.758   5.487   1.273  0.0545  0.9375  0.0233
10753WAT      O43717   6.201   4.919   4.438 -0.0288  0.5128  0.4395
10753WAT     H143718   6.181   4.932   4.522  0.7672  0.3709  0.6683
10753WAT     H243719   6.228   4.836   4.437  0.5473  0.6955  0.1734
10753WAT    EPW43720   6.202   4.909   4.451  0.3430  0.5317 -0.2502
10754WAT      O43721   0.363   7.033   7.592 -0.6404  0.9960 -0.2127
10754WAT     H143722   0.412   7.083   7.644  0.0534 -0.4805  0.6230
10754WAT     H243723   0.413   7.021   7.522  0.2846 -0.5203  0.6434
10754WAT    EPW43724   0.377   7.039   7.590  0.0887  0.7524  0.3073
10755WAT      O43725   1.245   3.477   6.181  0.3136  0.2716 -0.4473
10755WAT     H143726   1.312   3.471   6.235 -0.4176 -0.6851  0.3863
10755WAT     H243727   1.259   3.413   6.123 -0.5641 -0.8396  0.5362
10755WAT    EPW43728   1.257   3.467   6.180  0.1638  0.0157 -0.0171
10756WAT      O43729   2.778   0.602   0.870 -0.0527  0.1819 -0.7204
10756WAT     H143730   2.844   0.578   0.922 -0.6276 -0.4912 -0.2930
10756WAT     H243731   2.776   0.539   0.810  0.2970  0.7028 -1.2841
10756WAT    EPW43732   2.787   0.589   0.869 -0.4802  0.2767  0.1172
10757WAT      O43733   4.447   1.451   4.160 -0.2040 -0.0359  0.0897
10757WAT     H143734   4.383   1.472   4.215 -0.5524  0.0103 -0.3270
10757WAT     H243735   4.424   1.373   4.131  0.4593 -0.4716  0.7034
10757WAT    EPW43736   4.434   1.443   4.164  0.6174  0.2764 -0.1936
10758WAT      O43737   6.122   2.061   3.490  0.0084 -0.2031  0.5545
10758WAT     H143738   6.039   2.074   3.467 -0.2757 -1.3742  0.8288
10758WAT     H243739   6.155   2.016   3.422  0.6678  0.9731  0.0668
10758WAT    EPW43740   6.114   2.056   3.477 -0.0707  0.7081 -0.2494
10759WAT      O43741   1.344   2.490   2.673 -0.5894 -0.5715  0.0410
10759WAT     H143742   1.285   2.477   2.610 -0.7363 -0.5013  0.1641
10759WAT     H243743   1.401   2.545   2.637 -1.4018  0.5559  0.4268
10759WAT    EPW43744   1.344   2.496   2.659 -0.8266 -0.7397 -0.0478
10760WAT      O43745   6.474   3.408   5.387  0.3908 -0.4580  0.3725
10760WAT     H143746   6.538   3.358   5.419 -1.3096 -2.4641  0.8831
10760WAT     H243747   6.445   3.451   5.456  0.3131 -0.6093  0.4363
10760WAT    EPW43748   6.479   3.407   5.402  0.4206  0.1576  0.2323
10761WAT      O43749   6.330   6.535   6.675 -0.3474  0.0755  0.4916
10761WAT     H143750   6.245   6.526   6.658  0.0150 -2.4444 -0.5129
10761WAT     H243751   6.343   6.485   6.745  0.5863 -1.3556 -0.6255
10761WAT    EPW43752   6.320   6.527   6.683  0.6162 -0.0404  0.1283
10762WAT      O43753   3.816   6.823   3.363  0.1081  0.0541  0.8222
10762WAT     H143754   3.807   6.736   3.368 -3.1535  0.2668  0.6706
10762WAT     H243755   3.761   6.845   3.299  1.7271  2.1816  0.0534
10762WAT    EPW43756   3.807   6.813   3.354  0.0008  0.1445 -0.4611
10763WAT      O43757   1.937   1.998   5.777  0.8887  0.2107  0.4827
10763WAT     H143758   1.933   1.949   5.704  2.5990 -0.5085  0.8113
10763WAT     H243759   1.883   2.064   5.760 -1.6324 -1.8051  0.0666
10763WAT    EPW43760   1.928   2.000   5.763  0.5113 -0.0693 -0.1817
10764WAT      O43761   2.130   2.750   5.215 -0.3509  0.2531 -0.1113
10764WAT     H143762   2.203   2.741   5.168 -0.3184 -0.4885  0.0656
10764WAT     H243763   2.066   2.743   5.156 -0.3594 -1.9957  0.0660
10764WAT    EPW43764   2.132   2.747   5.200 -0.5010  0.2724  1.4652
10765WAT      O43765   7.522   5.021   7.546 -0.0553 -0.0775 -0.1478
10765WAT     H143766   7.482   5.086   7.503  0.3090  0.0118 -0.3595
10765WAT     H243767   7.598   5.013   7.504 -0.0104 -0.5012  0.0109
10765WAT    EPW43768   7.528   5.030   7.533 -0.0476 -0.3447 -0.6049
10766WAT      O43769   2.059   5.478   2.742  0.5728  0.1749  0.9270
10766WAT     H143770   2.036   5.513   2.818 -0.6676  0.5854  0.3831
10766WAT     H243771   2.145   5.495   2.737  0.1492  2.7428  0.9126
10766WAT    EPW43772   2.069   5.486   2.752  0.5032  0.7708  0.2212
10767WAT      O43773   7.478   4.841   6.795 -0.3287  0.0834  0.0867
10767WAT     H143774   7.541   4.862   6.851  0.4942 -2.0083  0.0397
10767WAT     H243775   7.404   4.855   6.840  0.2989 -1.1482  1.5672
10767WAT    EPW43776   7.476   4.846   6.810 -0.8896 -0.3444  0.6178
10768WAT      O43777   0.421   3.308   7.578 -0.4343  0.0322  0.9252
10768WAT     H143778   0.495   3.267   7.600  0.3673  0.4208 -0.8733
10768WAT     H243779   0.366   3.288   7.643  1.5634  0.7119  2.9576
10768WAT    EPW43780   0.424   3.299   7.591  0.4035 -0.7779 -0.3644
10769WAT      O43781   4.158   7.329   3.427  0.6225  0.0176  0.4044
10769WAT     H143782   4.087   7.373   3.400  1.0010 -0.2342 -1.0504
10769WAT     H243783   4.137   7.246   3.414  0.7306 -0.1360  1.1542
10769WAT    EPW43784   4.144   7.323   3.421 -0.7106 -0.1359 -0.2384
10770WAT      O43785   1.142   2.214   1.448 -0.2554  0.5712 -0.2269
10770WAT     H143786   1.104   2.137   1.436  1.3617 -0.2832 -0.1074
10770WAT     H243787   1.220   2.205   1.410  0.6864  1.4893  1.3767
10770WAT    EPW43788   1.148   2.201   1.441 -0.8341 -0.3452 -0.4205
10771WAT      O43789   7.480   1.197   5.541 -0.1065 -0.1621 -0.3821
10771WAT     H143790   7.399   1.178   5.515 -0.7655  0.1369  1.3182
10771WAT     H243791   7.517   1.118   5.552  0.1865 -0.2921 -2.0989
10771WAT    EPW43792   7.473   1.182   5.539  0.1505 -0.5544 -0.8188
10772WAT      O43793   2.762   3.860   2.602 -0.1414 -0.1001 -0.3007
10772WAT     H143794   2.742   3.890   2.681  0.9523 -1.0251  0.3587
10772WAT     H243795   2.848   3.846   2.607 -0.2136 -1.0026 -1.3630
10772WAT    EPW43796   2.772   3.862   2.614 -0.2080  0.2094  0.2343
10773WAT      O43797   0.426   7.460   0.671  0.1544 -0.6069 -0.1360
10773WAT     H143798   0.396   7.529   0.716  1.1933 -0.7441  0.8019
10773WAT     H243799   0.369   7.453   0.605 -0.7679  0.2942  0.5230
10773WAT    EPW43800   0.413   7.469   0.668  0.5273 -0.0159 -0.1998
10774WAT      O43801   0.688   2.747   1.386 -0.0390  0.5799 -0.1035
10774WAT     H143802   0.721   2.727   1.308  2.0641 -0.8678  1.0315
10774WAT     H243803   0.655   2.671   1.414  1.1532  0.5199  1.2305
10774WAT    EPW43804   0.688   2.732   1.379 -0.3340  0.3818  0.9570
10775WAT      O43805   2.272   0.142   5.294 -0.4700 -0.2143  0.2384
10775WAT     H143806   2.303   0.061   5.308  1.7880  0.4480 -0.4044
10775WAT     H243807   2.260   0.144   5.207  1.4596  0.7066 -0.0587
10775WAT    EPW43808   2.275   0.130   5.283  0.2715 -0.3835 -0.0926
10776WAT      O43809   5.741   6.603   5.485 -0.2851 -0.4136 -0.4504
10776WAT     H143810   5.703   6.655   5.426 -0.1028 -0.4890 -0.6325
10776WAT     H243811   5.819   6.640   5.496 -0.2864 -0.4493 -0.3177
10776WAT    EPW43812   5.747   6.616   5.478  0.7039  0.0007 -0.2009
10777WAT      O43813   7.292   4.144   6.055 -0.8070 -0.1987  0.2785
10777WAT     H143814   7.211   4.168   6.077 -1.1624 -1.6782  0.7397
10777WAT     H243815   7.299   4.170   5.972 -1.3947  0.7984  0.5208
10777WAT    EPW43816   7.281   4.151   6.046 -0.3113 -0.0429  0.2321
10778WAT      O43817   7.053   1.258   1.936  0.4326  0.5229 -0.0384
10778WAT     H143818   7.083   1.298   2.007  0.5243  0.3060  0.0474
10778WAT     H243819   7.042   1.323   1.878 -0.5221  0.8346  0.4653
10778WAT    EPW43820   7.056   1.273   1.938  0.4077 -0.0312  0.2696
10779WAT      O43821   6.588   0.353   1.349  0.9631  0.3403 -0.0825
10779WAT     H143822   6.582   0.438   1.329 -3.2354  0.4702  0.8233
10779WAT     H243823   6.594   0.314   1.271 -1.7985  1.3926 -0.9370
10779WAT    EPW43824   6.588   0.360   1.334  0.6209  0.2871  0.2764
10780WAT      O43825   3.800   6.542   1.040  0.2978  0.1654  0.2061
10780WAT     H143826   3.859   6.487   1.072 -0.5948  0.5921  2.7589
10780WAT     H243827   3.800   6.608   1.097  0.5390  2.3630 -2.1423
10780WAT    EPW43828   3.809   6.544   1.053  0.3734  0.3466 -0.3661
10781WAT      O43829   2.438   1.980   5.910  0.0538 -0.0192  0.1176
10781WAT     H143830   2.394   1.943   5.975  0.1429  0.9755  0.7778
10781WAT     H243831   2.477   2.048   5.949 -1.9940  2.2233 -1.4206
10781WAT    EPW43832   2.437   1.985   5.925  0.3612 -0.2434 -0.0878
10782WAT      O43833   4.279   2.906   1.633 -0.2012 -0.2302 -0.1104
10782WAT     H143834   4.252   2.844   1.688  1.7397 -0.8936  0.1591
10782WAT     H243835   4.296   2.974   1.685 -1.0154  0.0920 -0.2481
10782WAT    EPW43836   4.277   2.907   1.648 -0.0937 -0.5165  0.1450
10783WAT      O43837   5.585   0.960   1.262 -0.7936  0.1520 -0.3192
10783WAT     H143838   5.511   0.916   1.248 -0.4297 -0.1697 -1.3906
10783WAT     H243839   5.620   0.919   1.331  0.0113 -1.9788 -1.8645
10783WAT    EPW43840   5.579   0.947   1.270  0.3156 -0.4583  0.0970
10784WAT      O43841   4.312   1.266   6.141 -0.0400  0.4690 -0.1415
10784WAT     H143842   4.395   1.284   6.163 -1.0569  2.5257  2.6918
10784WAT     H243843   4.295   1.192   6.183  0.3069  0.1394 -0.5815
10784WAT    EPW43844   4.322   1.258   6.150 -0.0917 -0.3151  0.5203
10785WAT      O43845   2.515   0.476   2.478  0.6132  0.3497  0.1394
10785WAT     H143846   2.455   0.535   2.453 -0.9396 -0.8834  0.7950
10785WAT     H243847   2.530   0.430   2.406 -1.5924 -1.2735  0.6169
10785WAT    EPW43848   2.508   0.478   2.464 -0.1249 -0.4305  0.4233
10786WAT      O43849   7.462   2.038   7.447 -0.1306 -0.0055  0.4427
10786WAT     H143850   7.436   2.110   7.404  2.7799  1.1578  0.4323
10786WAT     H243851   7.513   1.997   7.389 -1.1379 -1.7854  0.7219
10786WAT    EPW43852   7.466   2.043   7.432  0.3541  0.1694 -0.4233
10787WAT      O43853   0.359   7.363   0.934 -0.3652  0.2211 -0.5855
10787WAT     H143854   0.322   7.284   0.937 -0.6930  0.3706 -0.7096
10787WAT     H243855   0.373   7.375   0.848  0.8662 -0.2509 -0.4748
10787WAT    EPW43856   0.356   7.353   0.922  0.0437 -0.1256 -0.1508
10788WAT      O43857   4.985   2.814   5.087  0.5162 -0.2736 -0.1410
10788WAT     H143858   5.035   2.776   5.149  0.6129 -2.7458 -1.5930
10788WAT     H243859   4.904   2.793   5.111  0.0451  2.9461  1.6960
10788WAT    EPW43860   4.980   2.805   5.100  0.1877 -0.3313 -0.1694
10789WAT      O43861   2.118   2.771   0.301 -0.1452 -0.1242 -0.3374
10789WAT     H143862   2.056   2.710   0.297 -0.8165  0.5304 -0.1734
10789WAT     H243863   2.080   2.842   0.268  0.4326  0.3578  0.0024
10789WAT    EPW43864   2.103   2.773   0.296  0.0405  0.2075  0.3332
10790WAT      O43865   2.538   2.041   6.643 -0.2187 -0.1954 -0.0431
10790WAT     H143866   2.595   2.106   6.651 -1.2828  0.9740 -1.3960
10790WAT     H243867   2.460   2.081   6.650 -0.9235 -1.1249 -1.8587
10790WAT    EPW43868   2.535   2.057   6.645 -0.4605  0.0782  0.0018
10791WAT      O43869   0.209   0.561   3.781  0.1312 -0.0624 -0.0662
10791WAT     H143870   0.201   0.609   3.708  1.1098 -0.6699 -0.5907
10791WAT     H243871   0.227   0.481   3.751  1.1694 -0.1933  0.8416
10791WAT    EPW43872   0.211   0.557   3.766  0.1237 -0.2116  0.8026
10792WAT      O43873   1.343   1.306   7.333 -0.2884  0.4340 -0.8866
10792WAT     H143874   1.310   1.227   7.345  1.0390 -0.3984 -2.3525
10792WAT     H243875   1.347   1.315   7.247 -0.0501  1.9532 -0.7603
10792WAT    EPW43876   1.339   1.296   7.322 -0.0332 -0.2864  0.9759
10793WAT      O43877   0.714   2.248   5.225 -0.0908  0.5777 -0.3794
10793WAT     H143878   0.671   2.199   5.283  0.8876 -0.5938 -0.6087
10793WAT     H243879   0.653   2.267   5.165 -0.4510 -0.5161 -0.3787
10793WAT    EPW43880   0.698   2.243   5.225 -0.3094  0.2510  0.2833
10794WAT      O43881   1.164   5.012   4.623 -0.1513 -0.1051  0.2855
10794WAT     H143882   1.083   5.037   4.601  0.0015 -0.0984 -0.2937
10794WAT     H243883   1.174   4.936   4.580 -0.2123 -0.6160  1.1544
10794WAT    EPW43884   1.153   5.004   4.613 -0.4141  0.3536  0.0043
10795WAT      O43885   2.167   7.460   5.693  0.1869 -0.1664  0.0889
10795WAT     H143886   2.098   7.485   5.645 -1.7079 -0.4791  2.4600
10795WAT     H243887   2.163   7.512   5.763  1.3582 -1.3543  1.0832
10795WAT    EPW43888   2.156   7.471   5.696 -0.5554 -0.0722  0.2441
10796WAT      O43889   4.282   6.225   1.149  0.7008 -0.8107 -0.4037
10796WAT     H143890   4.219   6.275   1.184  2.0809 -0.5859  2.0459
10796WAT     H243891   4.241   6.151   1.129 -0.5357 -0.3278  0.2265
10796WAT    EPW43892   4.267   6.222   1.151 -0.3867 -0.0200 -0.8029
10797WAT      O43893   4.734   5.103   1.643  0.2153  0.2557 -0.4198
10797WAT     H143894   4.660   5.063   1.622 -0.1299 -0.8404  2.4502
10797WAT     H243895   4.793   5.039   1.642 -0.0093 -0.1305  2.5208
10797WAT    EPW43896   4.732   5.088   1.640 -0.7542 -0.0352 -0.3166
10798WAT      O43897   3.357   7.247   3.858 -0.4862  0.5369 -0.5016
10798WAT     H143898   3.282   7.210   3.882 -0.6245  1.0245 -0.1769
10798WAT     H243899   3.333   7.322   3.820 -0.1380  0.9925  0.1589
10798WAT    EPW43900   3.343   7.253   3.856 -0.0942 -0.3212 -0.3598
10799WAT      O43901   0.709   3.801   3.301  0.2126  0.4476  0.5923
10799WAT     H143902   0.662   3.730   3.323 -1.1811  1.1536 -0.0010
10799WAT     H243903   0.750   3.776   3.229  2.8721 -1.0489  2.4411
10799WAT    EPW43904   0.708   3.787   3.294  0.0913 -0.3542 -0.1550
10800WAT      O43905   0.328   6.494   7.514 -0.3930  0.2588  0.1958
10800WAT     H143906   0.381   6.450   7.567 -1.1708 -0.2647  0.5733
10800WAT     H243907   0.377   6.559   7.484  0.2244  0.2398  1.1342
10800WAT    EPW43908   0.343   6.497   7.517 -0.9299  0.0807  0.1596
10801WAT      O43909   0.028   1.369   4.204  0.5519  0.3058  0.5777
10801WAT     H143910  -0.058   1.374   4.218  0.6452  0.1883  1.1962
10801WAT     H243911   0.061   1.356   4.283  1.3540  2.7044  0.7140
10801WAT    EPW43912   0.020   1.368   4.218  0.2072  0.0665 -0.4640
10802WAT      O43913   7.184   5.019   1.977 -0.0988 -0.1320  0.7989
10802WAT     H143914   7.163   5.104   1.984 -2.4242 -0.7198  1.9264
10802WAT     H243915   7.259   5.014   2.021  0.7669  1.5206 -0.3566
10802WAT    EPW43916   7.192   5.031   1.984  0.1686  0.2286 -0.1063
10803WAT      O43917   4.692   0.268   4.293 -0.4442 -0.1545  0.3401
10803WAT     H143918   4.764   0.233   4.258 -0.8826 -0.6679 -0.0624
10803WAT     H243919   4.723   0.325   4.351  0.2890 -0.4759  0.2737
10803WAT    EPW43920   4.707   0.271   4.296  0.5219  0.4888  0.0287
10804WAT      O43921   3.546   2.431   5.695  0.2742 -0.0176 -0.1041
10804WAT     H143922   3.542   2.479   5.623  0.2254  0.6921  0.3564
10804WAT     H243923   3.513   2.484   5.757 -0.2721 -0.8375  0.3238
10804WAT    EPW43924   3.541   2.446   5.694 -0.4128  0.4680  0.4778
10805WAT      O43925   7.042   7.031   0.738 -0.0230 -0.0665 -0.2636
10805WAT     H143926   7.062   7.015   0.822 -0.1785 -0.6959 -0.3410
10805WAT     H243927   7.005   6.956   0.712  0.8686 -0.2050 -1.1586
10805WAT    EPW43928   7.039   7.017   0.747 -0.4898  0.2180 -0.0696
10806WAT      O43929   2.794   0.677   4.893 -0.2728  0.0447  0.5454
10806WAT     H143930   2.809   0.646   4.813  1.3638  1.3801  0.2745
10806WAT     H243931   2.848   0.746   4.898 -1.0200  0.5371  2.4610
10806WAT    EPW43932   2.805   0.683   4.882 -0.1764 -0.0085  0.6767
10807WAT      O43933   7.500   2.794   5.769  0.0741 -0.5261  0.3455
10807WAT     H143934   7.439   2.733   5.754 -0.6611  0.7248 -2.4750
10807WAT     H243935   7.555   2.784   5.701  2.2234 -0.6039  1.9784
10807WAT    EPW43936   7.499   2.783   5.757  0.1753  0.0418  0.4156
10808WAT      O43937   7.164   7.139   0.107  0.4948  0.3809 -0.4379
10808WAT     H143938   7.121   7.089   0.050 -1.2444  0.4036  0.7537
10808WAT     H243939   7.174   7.086   0.176  2.7631  0.2783 -0.7661
10808WAT    EPW43940   7.159   7.124   0.109  0.2018 -0.6257  0.8650
10809WAT      O43941   1.869   4.604   3.429  0.4358  0.3063 -0.6166
10809WAT     H143942   1.907   4.575   3.502  0.0129 -1.0916 -0.9288
10809WAT     H243943   1.817   4.668   3.457 -1.6199 -1.8098  0.7451
10809WAT    EPW43944   1.867   4.609   3.444  0.0858 -0.0512  0.3696
10810WAT      O43945   5.836   3.043   2.227 -0.7851  0.0822  0.2213
10810WAT     H143946   5.785   3.008   2.165 -2.1573 -0.6192  1.6752
10810WAT     H243947   5.779   3.077   2.284  0.4745  2.3773  0.2098
10810WAT    EPW43948   5.820   3.043   2.226 -0.0945 -0.3665  1.0230
10811WAT      O43949   2.526   0.273   3.888  1.0321  0.0813  0.1975
10811WAT     H143950   2.450   0.272   3.931  0.6410 -0.1373 -0.4852
10811WAT     H243951   2.518   0.342   3.835  0.7642 -0.6955 -0.8122
10811WAT    EPW43952   2.513   0.283   3.887 -0.6360  0.1094 -0.0183
10812WAT      O43953   5.396   1.778   0.899  0.5300  0.4355  0.1144
10812WAT     H143954   5.343   1.777   0.968  0.4948  0.1364  0.0820
10812WAT     H243955   5.449   1.711   0.913 -0.6093 -0.7572 -1.0315
10812WAT    EPW43956   5.396   1.768   0.911  0.6480  0.3987  0.6539
10813WAT      O43957   2.711   5.741   3.547 -0.4238  0.8031  0.2685
10813WAT     H143958   2.765   5.785   3.494 -0.1484 -0.7282 -0.7889
10813WAT     H243959   2.761   5.725   3.617  0.7221 -0.9256 -0.8498
10813WAT    EPW43960   2.726   5.745   3.550  0.1009  0.1613  0.0890
10814WAT      O43961   6.044   2.637   7.227 -0.1609  0.5622  0.0594
10814WAT     H143962   6.088   2.562   7.240  0.9802  0.5560 -2.9779
10814WAT     H243963   6.017   2.659   7.307  4.2341 -0.1700  2.0272
10814WAT    EPW43964   6.047   2.629   7.240  0.5531 -0.2759  0.3995
10815WAT      O43965   7.332   1.877   0.076  0.2946 -0.0867 -0.1167
10815WAT     H143966   7.260   1.861   0.030 -0.5481  1.2652  0.6573
10815WAT     H243967   7.385   1.916   0.017  0.5358 -1.3476 -0.7615
10815WAT    EPW43968   7.329   1.881   0.060  0.1595 -0.2340  0.2898
10816WAT      O43969   5.539   5.517   3.475  0.2257  0.5908 -0.0356
10816WAT     H143970   5.478   5.456   3.467  0.3695  0.4650 -0.1950
10816WAT     H243971   5.596   5.482   3.531  0.0872  0.7612  0.2138
10816WAT    EPW43972   5.539   5.503   3.482  0.0208  0.4675  0.7977
10817WAT      O43973   3.873   7.059   4.489  0.3314 -0.0358  1.0481
10817WAT     H143974   3.787   7.070   4.485  0.3746 -0.1324 -1.9638
10817WAT     H243975   3.882   6.977   4.521 -0.6999 -0.3112  0.6400
10817WAT    EPW43976   3.862   7.048   4.493 -0.1398  0.3088 -0.0259
10818WAT      O43977   7.198   5.260   2.797  0.0612 -0.3173  0.1706
10818WAT     H143978   7.158   5.304   2.733  2.2076  1.4220 -0.0681
10818WAT     H243979   7.279   5.250   2.767  0.3961 -1.9788  1.4695
10818WAT    EPW43980   7.204   5.265   2.783 -0.0921 -0.1177 -0.7714
10819WAT      O43981   2.612   3.911   1.494 -0.5820  0.1144  0.0532
10819WAT     H143982   2.556   3.886   1.556 -0.2763 -0.1679  0.2201
10819WAT     H243983   2.666   3.965   1.535 -1.3270  1.1893 -0.3420
10819WAT    EPW43984   2.612   3.915   1.509  0.1590  0.2076 -0.3097
10820WAT      O43985   1.238   0.768   7.325  0.2392 -0.1982  0.1917
10820WAT     H143986   1.200   0.839   7.292 -0.3954 -0.7947 -0.4175
10820WAT     H243987   1.318   0.768   7.291  0.5136  0.6296  0.8178
10820WAT    EPW43988   1.244   0.778   7.315 -0.0737 -0.1699 -0.2915
10821WAT      O43989   2.824   0.802   3.063 -0.7219  0.6714  0.1135
10821WAT     H143990   2.811   0.862   3.001 -0.4915 -0.1924 -0.8079
10821WAT     H243991   2.879   0.745   3.025 -0.7255  0.0202  1.0463
10821WAT    EPW43992   2.830   0.802   3.048  0.3799  0.0278 -0.4189
10822WAT      O43993   7.579   3.759   6.493 -0.5052 -0.5332  0.4183
10822WAT     H143994   7.518   3.819   6.504 -0.2677  0.0610 -1.1894
10822WAT     H243995   7.543   3.704   6.436  0.6200  0.1391 -1.0060
10822WAT    EPW43996   7.565   3.759   6.486  0.1509 -0.4960  1.1560
10823WAT      O43997   3.281   0.196   3.528  0.3360 -0.0335  0.1527
10823WAT     H143998   3.296   0.282   3.533  2.3778 -0.4315  2.4424
10823WAT     H243999   3.289   0.169   3.610  0.6577 -2.5670 -0.6484
10823WAT    EPW44000   3.284   0.205   3.541  0.1600  0.3457 -0.7792
10824WAT      O44001   6.359   7.350   6.815 -0.1899 -0.0651 -0.3518
10824WAT     H144002   6.294   7.292   6.812  0.6148 -0.9671 -0.8456
10824WAT     H244003   6.430   7.300   6.827  0.3829  0.9182  0.4929
10824WAT    EPW44004   6.360   7.334   6.817 -0.2177  0.1696 -0.3194
10825WAT      O44005   1.151   1.604   6.154  0.2596  0.4367  0.0021
10825WAT     H144006   1.073   1.633   6.182  0.5442 -0.6394  2.0709
10825WAT     H244007   1.205   1.670   6.170 -0.1299  1.0634 -1.1381
10825WAT    EPW44008   1.147   1.618   6.160 -0.1831 -0.2246  0.0349
10826WAT      O44009   3.714   1.290   7.029 -0.0407  0.0189 -0.1356
10826WAT     H144010   3.688   1.218   6.987 -1.0775  0.6903 -0.6724
10826WAT     H244011   3.701   1.270   7.113 -0.7936 -0.2460 -0.3056
10826WAT    EPW44012   3.708   1.276   7.035 -1.2243  0.3669 -0.1470
10827WAT      O44013   7.359   3.084   3.062  0.6786 -0.9680 -0.8117
10827WAT     H144014   7.383   3.058   3.142 -0.4321  1.8188  0.5551
10827WAT     H244015   7.425   3.058   3.012  2.4457 -1.0011  1.3610
10827WAT    EPW44016   7.372   3.076   3.067  0.4227 -0.3264  0.0959
10828WAT      O44017   3.117   3.013   1.027 -0.2025  0.2897 -0.4891
10828WAT     H144018   3.189   3.015   0.978 -0.7426 -1.6192 -1.4344
10828WAT     H244019   3.057   2.976   0.976 -1.8941  1.7681  0.2880
10828WAT    EPW44020   3.119   3.008   1.012  0.2087  0.0951 -0.0438
10829WAT      O44021   1.550   2.765   1.910 -0.6121 -0.1621 -0.2056
10829WAT     H144022   1.600   2.812   1.963 -1.6837 -1.2083  1.8427
10829WAT     H244023   1.538   2.817   1.841  1.0202  1.1490  0.4446
10829WAT    EPW44024   1.555   2.779   1.907 -0.2201 -0.2805 -0.3073
10830WAT      O44025   1.119   2.578   1.042  0.2609  0.7059  0.6179
10830WAT     H144026   1.143   2.533   0.971 -0.6691  0.5619  0.3716
10830WAT     H244027   1.179   2.557   1.101 -0.1515 -0.9380  0.5261
10830WAT    EPW44028   1.131   2.568   1.041  0.2157  0.4722  0.0925
10831WAT      O44029   2.795   0.521   1.518  0.4695 -0.5806 -0.0091
10831WAT     H144030   2.835   0.520   1.441  1.3279 -1.6012  0.4225
10831WAT     H244031   2.847   0.569   1.568  0.1026 -0.2250  0.0391
10831WAT    EPW44032   2.808   0.528   1.514  0.0429  0.8999  0.1894
10832WAT      O44033   0.537   3.800   6.966 -0.1143 -0.5487  0.9359
10832WAT     H144034   0.546   3.887   6.974  2.2706 -0.8082  2.1155
10832WAT     H244035   0.486   3.791   6.897  2.6728  1.8175 -1.7640
10832WAT    EPW44036   0.531   3.812   6.957 -0.2340  0.1594  0.7606
10833WAT      O44037   2.043   0.813   0.728 -0.1422 -0.2193 -0.5473
10833WAT     H144038   2.050   0.730   0.757  1.8289  0.0232 -0.1912
10833WAT     H244039   1.971   0.842   0.768 -0.8058 -1.7178 -0.5793
10833WAT    EPW44040   2.034   0.805   0.738  0.4201  0.0680  1.0675
10834WAT      O44041   0.426   1.960   6.025  0.8970  0.2275  0.2763
10834WAT     H144042   0.419   2.036   6.069  1.2484 -1.3445  3.2958
10834WAT     H244043   0.435   1.901   6.088 -1.2206 -2.6137 -1.8608
10834WAT    EPW44044   0.426   1.963   6.041 -1.1234 -0.4070  0.6439
10835WAT      O44045   2.633   0.390   3.439  0.0590  0.3003 -0.2796
10835WAT     H144046   2.647   0.414   3.522 -0.0223 -2.2126  0.5540
10835WAT     H244047   2.563   0.437   3.415  0.2323  1.2428  0.9935
10835WAT    EPW44048   2.624   0.400   3.448  0.0361  0.3314 -0.2804
10836WAT      O44049   4.227   0.091   0.217 -0.1679 -0.5624  0.3556
10836WAT     H144050   4.170   0.118   0.157  0.2784  0.4283  0.3591
10836WAT     H244051   4.217   0.148   0.282  0.6163 -0.5582  0.4812
10836WAT    EPW44052   4.217   0.103   0.218  0.5166  0.3886  0.2187
10837WAT      O44053   4.862   1.139   4.937 -0.0996 -0.0689 -0.6378
10837WAT     H144054   4.860   1.192   4.868  1.3955  0.6138 -0.2176
10837WAT     H244055   4.911   1.184   4.995  0.6327 -1.6127 -0.0111
10837WAT    EPW44056   4.869   1.154   4.936  0.1347  0.6000 -0.0815
10838WAT      O44057   3.890   1.427   4.057 -0.4595 -0.2240 -0.2298
10838WAT     H144058   3.902   1.389   3.979  0.6486 -0.7400  0.1689
10838WAT     H244059   3.817   1.473   4.046  0.6938  1.3289 -2.1934
10838WAT    EPW44060   3.881   1.428   4.044  0.4149 -0.2071 -0.6318
10839WAT      O44061   1.550   3.612   4.617  0.2594 -0.0782 -0.5048
10839WAT     H144062   1.496   3.675   4.643  1.1532  1.2534 -1.7210
10839WAT     H244063   1.570   3.635   4.535  3.0549 -0.2253  0.0483
10839WAT    EPW44064   1.545   3.624   4.609  0.5465 -0.7333  0.2513
10840WAT      O44065   3.075   7.249   7.446 -0.3005  0.4921  0.3821
10840WAT     H144066   3.007   7.216   7.489  0.8312 -1.8285  0.5363
10840WAT     H244067   3.055   7.235   7.362  0.3254 -1.0588  0.4548
10840WAT    EPW44068   3.062   7.242   7.440  0.7194 -0.1469 -0.2719
10841WAT      O44069   4.951   7.331   1.905  0.3551  0.1891 -0.1908
10841WAT     H144070   4.871   7.317   1.937  0.7366 -3.6359 -0.3700
10841WAT     H244071   5.003   7.292   1.963  1.9718  1.4376 -0.7437
10841WAT    EPW44072   4.947   7.323   1.918 -0.1437  0.1747  0.1870
10842WAT      O44073   6.507   3.951   6.880 -0.1293 -0.8142  0.7178
10842WAT     H144074   6.436   3.904   6.863  0.4945 -1.2189 -0.9782
10842WAT     H244075   6.568   3.891   6.898 -0.4048 -0.4493  3.2455
10842WAT    EPW44076   6.506   3.935   6.881  0.3739  0.0074 -0.0366
10843WAT      O44077   0.615   2.338   5.529  0.0088 -0.2820  0.4757
10843WAT     H144078   0.567   2.399   5.489  1.3150  0.0687 -0.6425
10843WAT     H244079   0.610   2.359   5.613  0.0961  1.1452  0.1555
10843WAT    EPW44080   0.607   2.350   5.535  0.1645  0.3255  0.0928
10844WAT      O44081   3.371   3.471   6.832  0.2982 -0.5537 -0.1881
10844WAT     H144082   3.393   3.470   6.747  0.3063 -1.2165 -0.1865
10844WAT     H244083   3.447   3.486   6.873 -0.0229  1.9922 -0.3568
10844WAT    EPW44084   3.386   3.473   6.825  0.2614 -0.4569 -0.3673
10845WAT      O44085   0.655   6.447   4.321  0.3523 -0.1159  0.2501
10845WAT     H144086   0.592   6.392   4.347  0.3168 -0.6565 -0.9100
10845WAT     H244087   0.726   6.416   4.360  0.3731 -1.1516 -0.5503
10845WAT    EPW44088   0.656   6.434   4.330  0.1966  0.2363  0.3309
10846WAT      O44089   6.949   1.995   0.148 -0.1042  0.2673  0.4777
10846WAT     H144090   6.991   1.991   0.224  1.8892 -0.7422 -0.6027
10846WAT     H244091   6.967   2.075   0.119  2.4649 -0.6265 -0.6415
10846WAT    EPW44092   6.958   2.006   0.155  0.3288  0.4321 -0.2961
10847WAT      O44093   3.900   4.030   1.973  0.2769 -1.0910  0.1441
10847WAT     H144094   3.835   3.973   1.985  0.0551 -1.1179 -1.0762
10847WAT     H244095   3.860   4.106   1.963  0.5612 -0.7461  1.5065
10847WAT    EPW44096   3.885   4.033   1.973 -0.1681 -0.1792 -0.0245
10848WAT      O44097   5.991   4.527   7.348 -0.3742  0.3677 -0.0179
10848WAT     H144098   5.906   4.533   7.328 -0.6759  1.2983  1.3854
10848WAT     H244099   5.997   4.569   7.425  1.3375  0.2331 -0.0397
10848WAT    EPW44100   5.979   4.534   7.356 -0.2441 -0.3398 -0.3040
10849WAT      O44101   4.111   1.751   4.508  0.3012  0.0917 -0.2365
10849WAT     H144102   4.098   1.792   4.584 -0.1485  2.5585 -1.5308
10849WAT     H244103   4.089   1.669   4.525  0.4431  0.5090  2.3507
10849WAT    EPW44104   4.106   1.745   4.522 -0.8307  0.1706 -0.0374
10850WAT      O44105   6.753   5.763   6.978  0.3154  0.5312  0.2847
10850WAT     H144106   6.740   5.703   6.916  3.0563  0.5385 -0.4429
10850WAT     H244107   6.722   5.726   7.050  0.9960 -1.3593 -0.3345
10850WAT    EPW44108   6.746   5.749   6.979 -0.3261  0.4684 -0.4023
10851WAT      O44109   4.276   2.059   0.265 -0.4648 -0.3734  0.0891
10851WAT     H144110   4.307   2.079   0.344 -2.5917  1.6976  0.5012
10851WAT     H244111   4.290   2.132   0.219 -1.3981 -0.7123 -0.7460
10851WAT    EPW44112   4.283   2.073   0.270 -0.2783  0.2521 -0.0133
10852WAT      O44113   7.329   5.672   4.579  0.2882 -0.0988 -0.1616
10852WAT     H144114   7.392   5.705   4.529 -0.0234  0.2455 -0.3287
10852WAT     H244115   7.335   5.717   4.653 -0.8689  1.1510 -0.7909
10852WAT    EPW44116   7.339   5.683   4.582  0.2446  0.5828 -0.3107
10853WAT      O44117   6.023   1.187   0.746  0.0748 -0.3963 -0.2598
10853WAT     H144118   5.954   1.222   0.704 -1.1550 -0.7875  1.3480
10853WAT     H244119   5.991   1.167   0.825  2.0603 -0.5715  0.5486
10853WAT    EPW44120   6.008   1.189   0.751  0.7688 -0.1902  0.2729
10854WAT      O44121   4.663   2.830   0.268 -0.2176  0.3289  0.0125
10854WAT     H144122   4.730   2.825   0.325  0.3815 -1.4389 -0.7766
10854WAT     H244123   4.619   2.756   0.282 -0.3139  0.0753 -1.4688
10854WAT    EPW44124   4.667   2.818   0.279  0.1978  0.0121 -0.6106
10855WAT      O44125   7.498   4.354   4.571  0.3907  0.0686 -0.0345
10855WAT     H144126   7.535   4.375   4.495  2.2298  1.4613  1.1775
10855WAT     H244127   7.441   4.419   4.585 -0.1955 -0.3623 -0.3301
10855WAT    EPW44128   7.495   4.367   4.562  0.4076 -0.2677 -0.1174
10856WAT      O44129   2.425   4.947   6.985 -0.7207 -0.2181 -0.7803
10856WAT     H144130   2.383   4.960   7.061 -0.1016 -0.8491 -0.3194
10856WAT     H244131   2.417   5.024   6.944  0.5692  0.7794  0.7387
10856WAT    EPW44132   2.418   4.961   6.990 -0.0328 -0.1932  0.1811
10857WAT      O44133   0.022   4.327   7.575  0.2185  0.1752 -0.2582
10857WAT     H144134   0.107   4.334   7.555  0.1870 -0.0933 -0.5054
10857WAT     H244135  -0.009   4.407   7.562  0.5723  0.4483  0.5190
10857WAT    EPW44136   0.030   4.340   7.570  0.1944 -0.2821 -0.5698
10858WAT      O44137   5.961   7.183   4.492 -0.1515 -0.0322  0.3702
10858WAT     H144138   6.021   7.137   4.534  0.4746  2.0264  1.9063
10858WAT     H244139   6.008   7.243   4.448 -0.9838  0.9315  0.7365
10858WAT    EPW44140   5.977   7.185   4.492  0.4165 -0.1068  0.4728
10859WAT      O44141   5.357   3.441   7.413 -0.6579 -0.3694 -0.5857
10859WAT     H144142   5.364   3.369   7.461  0.6563 -0.6691 -1.2100
10859WAT     H244143   5.273   3.441   7.389 -0.3218 -2.6368 -2.0296
10859WAT    EPW44144   5.346   3.431   7.417 -0.0058 -0.0776  0.1136
10860WAT      O44145   5.119   4.897   6.250 -0.2356 -0.7131 -0.0545
10860WAT     H144146   5.196   4.864   6.224 -0.4229 -0.8515 -0.4507
10860WAT     H244147   5.061   4.848   6.207 -0.5127  0.9647 -1.7622
10860WAT    EPW44148   5.122   4.885   6.240 -0.2644  0.4118  0.4063
10861WAT      O44149   6.688   5.570   6.752 -0.8308 -0.8441  0.0777
10861WAT     H144150   6.740   5.503   6.772 -2.0621 -2.5814 -2.0628
10861WAT     H244151   6.732   5.612   6.688 -0.7446 -0.4941  0.3604
10861WAT    EPW44152   6.702   5.567   6.745 -0.1086 -0.1131 -0.6381
10862WAT      O44153   3.605   2.775   7.521 -0.6047 -0.2470 -0.0570
10862WAT     H144154   3.609   2.691   7.496 -0.0059 -0.4748  0.7836
10862WAT     H244155   3.682   2.807   7.496 -0.1176 -0.4013  1.2198
10862WAT    EPW44156   3.617   2.767   7.513 -0.2993  0.1323 -0.9166
10863WAT      O44157   0.828   3.246   3.846 -0.3122 -0.6667  0.1242
10863WAT     H144158   0.807   3.182   3.790 -0.2378 -1.1929  0.6850
10863WAT     H244159   0.910   3.226   3.869 -0.4716 -0.6680  0.7028
10863WAT    EPW44160   0.837   3.234   3.841  0.5649 -0.4376 -0.1417
10864WAT      O44161   2.419   4.544   3.846  0.4494  0.4818 -0.0916
10864WAT     H144162   2.342   4.516   3.876 -0.3670  2.6508  0.0249
10864WAT     H244163   2.462   4.565   3.919  1.7542 -1.9519 -0.0639
10864WAT    EPW44164   2.414   4.543   3.861 -0.1432 -0.3285  0.2256
10865WAT      O44165   0.600   3.393   1.263 -0.5963 -0.1140 -0.2258
10865WAT     H144166   0.519   3.359   1.265 -1.4744  1.7483 -1.4581
10865WAT     H244167   0.586   3.479   1.255  1.5244  0.3583  0.4946
10865WAT    EPW44168   0.586   3.401   1.262  0.2941 -0.2467 -0.6896
10866WAT      O44169   4.314   6.515   0.546  0.0799 -0.1263 -0.1070
10866WAT     H144170   4.272   6.591   0.551 -0.5555 -0.5114  0.6030
10866WAT     H244171   4.361   6.512   0.619  0.1870 -0.3736 -0.1829
10866WAT    EPW44172   4.315   6.525   0.557  0.7949 -0.1846  0.5214
10867WAT      O44173   7.406   3.979   6.377 -0.0527  0.1452 -0.2455
10867WAT     H144174   7.322   3.957   6.372 -0.2660  1.0279 -0.8746
10867WAT     H244175   7.404   4.056   6.418  0.7023 -1.1144  2.3416
10867WAT    EPW44176   7.393   3.987   6.382 -0.4202  0.1478 -0.4912
10868WAT      O44177   4.063   2.606   2.134  0.0810  0.0593  0.0320
10868WAT     H144178   4.138   2.615   2.177 -0.7713  0.2062  1.5541
10868WAT     H244179   4.002   2.628   2.193 -1.1569  0.2156 -1.2298
10868WAT    EPW44180   4.065   2.611   2.149  0.3076  0.2761  0.5759
10869WAT      O44181   2.742   1.279   5.292  0.8176  0.0512 -0.1178
10869WAT     H144182   2.710   1.344   5.340  1.4384  1.2307 -1.2586
10869WAT     H244183   2.789   1.233   5.350  0.7426  0.8647  0.6171
10869WAT    EPW44184   2.744   1.282   5.308  0.0752 -0.2352 -0.3395
10870WAT      O44185   2.857   3.718   7.410  0.9722 -0.2812 -0.2468
10870WAT     H144186   2.920   3.662   7.386 -0.3859 -2.0934  0.2301
10870WAT     H244187   2.813   3.732   7.336  0.0702 -1.5216  0.0378
10870WAT    EPW44188   2.860   3.712   7.395  0.7040  0.2217  0.2100
10871WAT      O44189   5.920   4.727   2.898 -0.4363 -0.4404  0.2332
10871WAT     H144190   5.993   4.723   2.946  0.5289 -0.8931 -1.2054
10871WAT     H244191   5.936   4.793   2.843 -1.0148 -0.7231 -0.2810
10871WAT    EPW44192   5.933   4.736   2.897  0.1708 -0.4666  0.3270
10872WAT      O44193   3.996   2.556   5.500 -0.0149  0.0773  0.1101
10872WAT     H144194   4.035   2.626   5.535  0.2184 -0.3763  0.7766
10872WAT     H244195   3.924   2.546   5.549  0.6403 -0.9478  0.9000
10872WAT    EPW44196   3.991   2.565   5.513  0.3987 -0.7779  0.2493
10873WAT      O44197   0.412   6.227   1.388 -0.0265 -0.1897  0.1925
10873WAT     H144198   0.423   6.308   1.418  0.2277 -0.0302 -0.3260
10873WAT     H244199   0.337   6.202   1.423  0.4749 -0.1713  1.3275
10873WAT    EPW44200   0.403   6.235   1.398 -0.2846 -0.1752  0.0886
10874WAT      O44201   1.571   2.227   2.965 -0.1304  0.8234  0.8236
10874WAT     H144202   1.652   2.217   2.995  1.1103 -0.3371 -2.4800
10874WAT     H244203   1.538   2.146   2.969 -0.5462  0.9865  0.6785
10874WAT    EPW44204   1.578   2.214   2.970 -0.2636  0.2185 -0.1912
10875WAT      O44205   6.701   6.737   2.247  0.3116  0.3691 -0.2546
10875WAT     H144206   6.722   6.659   2.280 -1.3121 -1.3820 -2.9509
10875WAT     H244207   6.774   6.764   2.208  0.6163 -0.3287 -0.1835
10875WAT    EPW44208   6.715   6.729   2.246  0.2656 -0.1966 -0.1385
10876WAT      O44209   3.583   2.450   0.997  0.1107  0.9208 -0.4200
10876WAT     H144210   3.628   2.377   0.979  0.2252  0.2857  2.0548
10876WAT     H244211   3.605   2.504   0.932  2.4630 -0.2280 -0.6980
10876WAT    EPW44212   3.593   2.447   0.985  0.6072  0.0606  0.3665
10877WAT      O44213   0.208   5.651   4.336 -0.0311 -0.4738 -0.3604
10877WAT     H144214   0.247   5.603   4.275  0.9903  0.9322 -0.8565
10877WAT     H244215   0.194   5.727   4.297 -1.7387 -0.3527  0.3573
10877WAT    EPW44216   0.211   5.655   4.321 -0.5000 -0.2807  0.4817
10878WAT      O44217   0.166   5.413   1.303  0.6754 -0.0433  0.0013
10878WAT     H144218   0.253   5.405   1.305  0.8689  0.7950  4.7745
10878WAT     H244219   0.138   5.344   1.349 -0.9789  1.1969  0.9355
10878WAT    EPW44220   0.175   5.401   1.310  0.0334 -0.3248 -0.1757
10879WAT      O44221   0.225   5.228   0.685  0.3963 -0.0878  0.4211
10879WAT     H144222   0.147   5.198   0.662  0.3028 -0.0410  0.6770
10879WAT     H244223   0.209   5.276   0.756  0.0373  3.2615 -1.7268
10879WAT    EPW44224   0.211   5.230   0.692  0.1484 -0.8308  0.5349
10880WAT      O44225   4.042   2.083   1.058 -0.1057 -0.1516  0.0451
10880WAT     H144226   4.063   2.148   1.004  1.0846  0.2326  0.9086
10880WAT     H244227   4.073   2.012   1.018  0.1312  0.0368 -0.1083
10880WAT    EPW44228   4.050   2.082   1.044  0.6888 -0.1626 -0.8444
10881WAT      O44229   2.069   1.730   0.309  0.3005  0.5376  0.4567
10881WAT     H144230   1.997   1.757   0.266 -1.3189 -2.6279  0.8759
10881WAT     H244231   2.115   1.689   0.248  0.0367 -0.3917  0.8719
10881WAT    EPW44232   2.065   1.728   0.294  0.1691 -0.4575 -0.2657
10882WAT      O44233   4.575   2.854   1.668  0.2075 -0.3997  0.2595
10882WAT     H144234   4.515   2.791   1.659  0.6529 -0.6663 -1.1976
10882WAT     H244235   4.644   2.811   1.699  0.9522 -0.9828 -1.9892
10882WAT    EPW44236   4.576   2.838   1.671 -0.2219 -1.1652  0.0013
10883WAT      O44237   5.736   1.973   2.288 -0.4473  0.0671  0.5231
10883WAT     H144238   5.742   2.014   2.211 -0.5190 -0.2047  0.3720
10883WAT     H244239   5.802   2.008   2.334 -0.2192  0.0209  0.2382
10883WAT    EPW44240   5.747   1.984   2.283 -0.2877  0.3481  0.5107
10884WAT      O44241   1.153   2.984   2.259 -0.6612 -0.2319 -0.0971
10884WAT     H144242   1.070   3.010   2.265 -0.3564  0.5676  0.7317
10884WAT     H244243   1.163   2.931   2.328 -0.1402  0.6387  0.5016
10884WAT    EPW44244   1.142   2.980   2.270 -0.6708 -0.6067 -0.2945
10885WAT      O44245   0.917   5.736   4.236  0.0456  0.1480 -1.1379
10885WAT     H144246   0.951   5.814   4.253  1.0608 -0.5789  0.3490
10885WAT     H244247   0.869   5.718   4.306  0.7959 -1.0654 -0.9114
10885WAT    EPW44248   0.915   5.745   4.249 -0.6408  0.5193  0.0227
10886WAT      O44249   2.293   6.650   2.476  0.0029 -0.2043 -0.1489
10886WAT     H144250   2.347   6.718   2.484 -2.1021  1.5374  0.5912
10886WAT     H244251   2.310   6.601   2.545  0.5167  0.4161  0.1717
10886WAT    EPW44252   2.303   6.653   2.487  0.3132  0.7536 -1.1976
10887WAT      O44253   2.023   7.301   6.044  0.0803 -0.4002 -0.6064
10887WAT     H144254   2.102   7.266   6.056  0.7909  1.4724  0.6436
10887WAT     H244255   1.986   7.248   5.985  1.6843 -2.1856 -0.1035
10887WAT    EPW44256   2.029   7.288   6.037 -0.2567  0.1300 -0.0979
10888WAT      O44257   7.284   2.853   2.167 -0.5127 -0.5190  0.2756
10888WAT     H144258   7.247   2.839   2.244 -0.0006 -0.2996  0.5622
10888WAT     H244259   7.368   2.834   2.180 -0.5193 -1.0476 -0.3784
10888WAT    EPW44260   7.291   2.848   2.180  0.3786  0.4255  0.3739
10889WAT      O44261   6.968   0.686   2.316  0.5598 -0.1862 -0.1489
10889WAT     H144262   6.923   0.635   2.262  0.8988  0.5271 -1.1232
10889WAT     H244263   6.955   0.766   2.285 -0.4064  0.4303  1.6656
10889WAT    EPW44264   6.959   0.691   2.303 -0.6605  0.3181  0.3435
10890WAT      O44265   4.112   3.196   6.487 -0.2924  0.0680  0.1890
10890WAT     H144266   4.135   3.183   6.570  1.0260 -0.3271 -0.2116
10890WAT     H244267   4.029   3.168   6.483 -0.4128  0.2286  1.3900
10890WAT    EPW44268   4.103   3.190   6.498  0.2635  0.3056  0.9477
10891WAT      O44269   5.383   2.717   4.325 -0.0454  0.2465 -0.2238
10891WAT     H144270   5.411   2.636   4.305 -0.3965 -0.2932  1.3638
10891WAT     H244271   5.317   2.730   4.269 -0.6221 -0.9685  0.1501
10891WAT    EPW44272   5.378   2.707   4.313  0.6807  0.1192  0.8694
10892WAT      O44273   2.854   7.132   5.393 -0.2010  0.0763  0.9207
10892WAT     H144274   2.821   7.108   5.315  0.5827  0.5416  0.4356
10892WAT     H244275   2.785   7.126   5.446 -0.6633 -0.6404  0.2771
10892WAT    EPW44276   2.839   7.127   5.389 -0.0509 -0.4686 -0.6999
10893WAT      O44277   4.105   1.339   2.143  0.1180  0.5030 -0.4659
10893WAT     H144278   4.126   1.254   2.137 -0.9797  0.1022  0.8950
10893WAT     H244279   4.178   1.379   2.118  0.4779 -0.8294 -1.7104
10893WAT    EPW44280   4.119   1.332   2.138  0.1909  0.6618  0.4406
10894WAT      O44281   7.606   7.556   6.225  0.1836 -0.3021  0.0202
10894WAT     H144282   7.577   7.559   6.307 -1.6322 -0.3756 -0.5613
10894WAT     H244283   7.672   7.500   6.228 -1.9417 -2.9875  0.9214
10894WAT    EPW44284   7.611   7.548   6.237 -0.7006  0.0991  0.4360
10895WAT      O44285   7.611   6.377   2.591 -0.7972 -0.2408  0.2107
10895WAT     H144286   7.559   6.433   2.548  0.6252  2.0422  1.2291
10895WAT     H244287   7.602   6.402   2.674 -1.2700 -2.6316  0.9623
10895WAT    EPW44288   7.602   6.389   2.597  0.0243  0.3978  0.1680
10896WAT      O44289   4.722   5.583   5.619 -0.4396  0.6184  0.3303
10896WAT     H144290   4.720   5.666   5.593 -1.4746  1.0264  1.6050
10896WAT     H244291   4.699   5.587   5.703 -0.2558 -0.9388  0.4921
10896WAT    EPW44292   4.718   5.596   5.627  0.1223  0.2923 -0.5239
10897WAT      O44293   2.916   4.986   1.690 -0.0831 -0.4487  0.0945
10897WAT     H144294   2.920   5.067   1.658 -2.4731  0.2324  1.2069
10897WAT     H244295   2.969   4.940   1.639  2.0466  1.9566 -0.0549
10897WAT    EPW44296   2.924   4.991   1.678 -0.2579 -0.3178 -0.6128
10898WAT      O44297   7.327   2.896   6.674 -0.0327 -0.2840 -0.3638
10898WAT     H144298   7.387   2.949   6.709 -0.3127 -1.2655  1.7712
10898WAT     H244299   7.371   2.854   6.611  2.3167 -2.5635  2.5126
10898WAT    EPW44300   7.343   2.897   6.670 -0.6267 -0.0334  0.4632
10899WAT      O44301   1.687   3.579   6.292 -0.3900  0.4629 -0.1571
10899WAT     H144302   1.727   3.652   6.264 -1.3421  0.5724 -1.3228
10899WAT     H244303   1.743   3.547   6.351 -0.1152  2.3287  0.6886
10899WAT    EPW44304   1.701   3.585   6.296 -0.2205  0.6327  0.0453
10900WAT      O44305   5.246   0.702   2.264  0.5620 -0.0858 -0.4595
10900WAT     H144306   5.188   0.727   2.324 -0.4647  0.5777 -1.6849
10900WAT     H244307   5.321   0.738   2.292  0.1804 -0.0617  0.5755
10900WAT    EPW44308   5.249   0.711   2.277  0.3117 -0.4944 -0.1182
10901WAT      O44309   2.635   5.543   0.052 -0.0831  0.1565 -0.0707
10901WAT     H144310   2.679   5.568  -0.019 -0.0200  0.7500  0.1706
10901WAT     H244311   2.605   5.464   0.031 -0.9492  0.7539 -1.1381
10901WAT    EPW44312   2.637   5.535   0.038  0.0176  0.0459 -0.4700
10902WAT      O44313   7.173   5.842   0.405  0.4911 -0.2832  0.1989
10902WAT     H144314   7.099   5.808   0.374  0.1600  0.4269  0.1856
10902WAT     H244315   7.220   5.772   0.427  0.6806 -0.8218 -1.7285
10902WAT    EPW44316   7.169   5.827   0.404  0.0928 -0.0933  0.3625
10903WAT      O44317   0.720   3.492   5.786  0.1380  0.1686  0.1150
10903WAT     H144318   0.653   3.437   5.789 -0.9675  1.3526 -1.2882
10903WAT     H244319   0.735   3.503   5.701  2.1978 -0.0984  0.3827
10903WAT    EPW44320   0.712   3.486   5.774  0.2578 -0.1694 -0.2683
10904WAT      O44321   2.925   5.950   3.507 -0.1045  0.7427 -0.6531
10904WAT     H144322   2.899   6.024   3.469  0.8040  0.6102 -1.5782
10904WAT     H244323   2.966   5.907   3.443 -2.0070 -1.3354 -0.6031
10904WAT    EPW44324   2.927   5.954   3.492 -0.8678  0.5163 -0.2867
10905WAT      O44325   1.656   2.477   0.279  0.1771 -0.4716  0.1748
10905WAT     H144326   1.742   2.491   0.282  0.4995 -2.2485  0.2449
10905WAT     H244327   1.622   2.557   0.285  1.8092  0.2317  0.5877
10905WAT    EPW44328   1.663   2.491   0.280 -0.0281  0.2750 -0.7072
10906WAT      O44329   6.133   7.505   3.827 -0.0680 -0.7619  0.3216
10906WAT     H144330   6.132   7.554   3.755 -0.6672  0.8831  1.4027
10906WAT     H244331   6.203   7.533   3.871 -0.5405 -0.6898  1.0587
10906WAT    EPW44332   6.143   7.516   3.823  0.3289 -0.0520  0.2041
10907WAT      O44333   4.705   5.620   3.483  0.3422  0.4636 -0.8078
10907WAT     H144334   4.622   5.623   3.510  0.7828 -0.4413  0.7624
10907WAT     H244335   4.703   5.663   3.407 -1.4573  0.9146 -0.5567
10907WAT    EPW44336   4.693   5.627   3.476  1.0064  0.0637 -0.1731
10908WAT      O44337   0.855   0.723   3.981 -0.0963  0.2529 -0.3055
10908WAT     H144338   0.922   0.743   3.929  0.5017  0.5291  0.5498
10908WAT     H244339   0.812   0.799   3.988  0.7965  0.6784  0.9643
10908WAT    EPW44340   0.858   0.737   3.974 -0.3532  0.2461  0.4597
10909WAT      O44341   0.998   5.303   1.809  0.1878 -0.0967  0.1577
10909WAT     H144342   0.962   5.245   1.863  0.5830  0.3994  0.9779
10909WAT     H244343   1.083   5.283   1.812  0.5354  1.3824  1.5738
10909WAT    EPW44344   1.006   5.291   1.817  0.4501  0.0401 -0.2812
10910WAT      O44345   3.342   7.588   4.163 -0.2777 -0.1041 -0.3268
10910WAT     H144346   3.399   7.525   4.145  0.6104  0.9141 -1.2935
10910WAT     H244347   3.278   7.575   4.105 -0.6469 -0.7492  0.2077
10910WAT    EPW44348   3.341   7.577   4.152 -0.1595 -0.0291 -0.1920
10911WAT      O44349   6.566   0.078   6.607  0.3951  0.1217 -0.2492
10911WAT     H144350   6.532   0.094   6.685  0.5401  0.2007 -0.2012
10911WAT     H244351   6.573  -0.009   6.605 -0.3813  0.0603 -0.5053
10911WAT    EPW44352   6.562   0.067   6.618 -0.6170 -0.1084  0.4376
10912WAT      O44353   6.379   3.113   6.509  0.2686  0.1927 -0.0623
10912WAT     H144354   6.336   3.188   6.497 -0.7444 -0.2407  0.7004
10912WAT     H244355   6.345   3.060   6.448 -0.5829 -0.2536  0.7661
10912WAT    EPW44356   6.367   3.117   6.498  0.1947  0.3732 -0.3041
10913WAT      O44357   7.381   7.456   0.934 -0.3916 -0.1405 -0.3311
10913WAT     H144358   7.388   7.381   0.890 -0.6158 -0.9550  0.9634
10913WAT     H244359   7.312   7.494   0.898 -0.6108 -0.8135 -0.6435
10913WAT    EPW44360   7.372   7.450   0.922 -0.4008 -0.2016 -0.5736
10914WAT      O44361   2.695   3.407   1.260 -0.6140 -0.0572 -0.1405
10914WAT     H144362   2.729   3.434   1.185  1.2093  0.6761  0.8780
10914WAT     H244363   2.610   3.400   1.243 -0.2266 -0.1087 -2.2983
10914WAT    EPW44364   2.687   3.410   1.247 -0.1809 -0.0671 -0.0695
10915WAT      O44365   2.853   0.623   2.426 -0.7348  0.0487  0.4966
10915WAT     H144366   2.828   0.558   2.478  1.0714 -1.0289  0.0980
10915WAT     H244367   2.791   0.625   2.364 -0.9453 -1.1347  0.6460
10915WAT    EPW44368   2.840   0.614   2.425 -0.4212  0.3817 -0.1283
10916WAT      O44369   4.589   2.265   4.977  0.6092 -0.3650  0.0587
10916WAT     H144370   4.664   2.231   4.948  0.7307 -0.3615  0.3655
10916WAT     H244371   4.583   2.341   4.935  0.3252 -0.7675 -0.6464
10916WAT    EPW44372   4.599   2.271   4.967  0.8880 -0.0873  0.2365
10917WAT      O44373   2.865   1.917   6.083  0.1538  0.4989 -0.6155
10917WAT     H144374   2.846   1.965   6.153  1.0635  0.8296 -0.5770
10917WAT     H244375   2.789   1.908   6.043 -0.5503 -0.3663  0.8253
10917WAT    EPW44376   2.851   1.923   6.088  0.0258 -0.0745 -0.3702
10918WAT      O44377   0.769   6.368   4.930 -0.3118  0.1522  0.0265
10918WAT     H144378   0.855   6.354   4.935 -0.2604 -1.1063 -2.7395
10918WAT     H244379   0.734   6.290   4.948 -0.8379  0.3988  0.0997
10918WAT    EPW44380   0.777   6.355   4.934  0.2517 -0.1043 -0.1281
10919WAT      O44381   4.126   5.984   2.378  0.0417  0.2207 -0.1654
10919WAT     H144382   4.173   6.017   2.312 -1.0218  0.2229 -0.9525
10919WAT     H244383   4.172   6.007   2.449 -0.1207  2.5633 -0.7226
10919WAT    EPW44384   4.140   5.992   2.379 -0.2638  0.1734  0.1381
10920WAT      O44385   1.630   1.577   2.079 -0.0563  0.1941  0.0637
10920WAT     H144386   1.670   1.608   2.008 -1.0807 -1.1433 -1.1447
10920WAT     H244387   1.643   1.640   2.138  1.3901  1.0526 -1.0916
10920WAT    EPW44388   1.638   1.591   2.077 -0.3134  0.0327  0.2054
10921WAT      O44389   0.708   4.053   2.423 -0.5568 -0.4122  0.0433
10921WAT     H144390   0.708   4.011   2.500 -0.6739 -1.5505 -0.5525
10921WAT     H244391   0.787   4.089   2.419 -0.8173  0.3051  1.0313
10921WAT    EPW44392   0.720   4.052   2.434  0.2817 -0.3387  0.4735
10922WAT      O44393   5.682   6.161   3.269  0.1068  0.4185 -0.2754
10922WAT     H144394   5.672   6.245   3.293 -2.2569  0.2541 -0.4948
10922WAT     H244395   5.607   6.142   3.229  1.1555 -1.4238 -1.4859
10922WAT    EPW44396   5.670   6.171   3.267  0.2062 -0.4165 -0.0688
10923WAT      O44397   5.633   5.346   5.687 -0.3832 -0.1867  0.0962
10923WAT     H144398   5.626   5.288   5.753  1.6526 -0.6667 -0.0465
10923WAT     H244399   5.719   5.361   5.683 -0.7291  1.7178 -0.8775
10923WAT    EPW44400   5.645   5.340   5.696 -0.1238  0.4757  0.3952
10924WAT      O44401   2.356   0.092   1.204  0.0819 -0.1249 -0.3066
10924WAT     H144402   2.416   0.112   1.143 -1.9888 -0.0150 -2.4366
10924WAT     H244403   2.342   0.168   1.244  0.2885  0.1720 -0.7855
10924WAT    EPW44404   2.363   0.106   1.201  0.1123 -0.3384 -0.4212
10925WAT      O44405   6.482   5.840   3.745 -0.1109 -0.1611  0.0210
10925WAT     H144406   6.468   5.848   3.831  0.5061  0.4806  0.0738
10925WAT     H244407   6.427   5.898   3.710  0.9409  0.9229  0.1089
10925WAT    EPW44408   6.472   5.849   3.753 -0.4488 -0.8613  0.6205
10926WAT      O44409   1.258   4.542   2.037 -0.0293  0.4568 -0.1733
10926WAT     H144410   1.236   4.616   1.996  1.7216  0.5383 -1.0466
10926WAT     H244411   1.304   4.569   2.105  0.5065  0.1736 -0.4208
10926WAT    EPW44412   1.261   4.557   2.041 -0.2286 -0.3090  0.2433
10927WAT      O44413   2.074   3.046   1.594 -0.0260 -0.4110 -0.4147
10927WAT     H144414   2.131   3.036   1.660  0.2086  1.9278 -0.1825
10927WAT     H244415   2.009   3.091   1.630 -1.3149 -1.6381 -1.1058
10927WAT    EPW44416   2.073   3.051   1.609  0.1277 -0.3591 -0.2632
10928WAT      O44417   1.144   7.257   6.337  0.0027 -0.3465 -0.6144
10928WAT     H144418   1.180   7.186   6.373 -1.2095 -1.0189 -0.6805
10928WAT     H244419   1.058   7.240   6.340 -0.3378  1.3064 -0.2423
10928WAT    EPW44420   1.137   7.244   6.342 -0.0174  0.4186 -0.2243
10929WAT      O44421   5.475   2.146   3.576 -0.7397  0.1330  0.5660
10929WAT     H144422   5.552   2.109   3.592 -0.4071  0.6247  0.1373
10929WAT     H244423   5.495   2.230   3.563 -1.2386  0.1154 -0.4010
10929WAT    EPW44424   5.489   2.153   3.576  0.1915 -0.4394 -0.2196
10930WAT      O44425   2.281   2.939   2.973 -0.0939  0.2183 -0.2860
10930WAT     H144426   2.217   2.899   2.930  0.1508 -2.1299  1.3507
10930WAT     H244427   2.329   2.975   2.910 -1.5082 -0.3179 -1.7298
10930WAT    EPW44428   2.279   2.938   2.957  0.2048  0.2564  0.7026
10931WAT      O44429   2.272   0.601   1.211  0.4450 -0.7552  0.0607
10931WAT     H144430   2.238   0.615   1.290  3.1077  1.3419  1.0182
10931WAT     H244431   2.210   0.628   1.156  0.0167  1.8645  1.6398
10931WAT    EPW44432   2.258   0.607   1.215 -0.2649 -0.6035 -0.2013
10932WAT      O44433   1.069   5.959   2.236 -0.4361  0.4812 -0.0518
10932WAT     H144434   1.069   5.993   2.156 -0.6216  0.3617 -0.1042
10932WAT     H244435   0.996   5.991   2.271 -1.2050 -0.7311 -0.4812
10932WAT    EPW44436   1.058   5.969   2.229  0.6779  0.3212  0.6104
10933WAT      O44437   7.439   7.612   1.320 -0.0189  0.4560  0.8006
10933WAT     H144438   7.454   7.528   1.300 -1.0929  0.8824 -2.2424
10933WAT     H244439   7.359   7.611   1.356 -0.2599  0.2219  0.2666
10933WAT    EPW44440   7.430   7.600   1.323 -0.3772  0.2185  0.0846
10934WAT      O44441   7.379   3.005   1.504 -0.1829  0.4275 -0.3463
10934WAT     H144442   7.382   2.934   1.455 -0.9862 -0.5876  1.0079
10934WAT     H244443   7.452   2.999   1.553 -0.0204  0.7847 -0.5379
10934WAT    EPW44444   7.390   2.994   1.504  0.5560  0.4915  0.4301
10935WAT      O44445   3.117   2.411   1.925 -0.6994 -0.8113 -0.5556
10935WAT     H144446   3.074   2.454   1.862 -0.1520  0.3754 -0.1658
10935WAT     H244447   3.200   2.433   1.911 -0.2674 -2.5703 -0.9187
10935WAT    EPW44448   3.123   2.421   1.914 -0.3544  0.3129  0.3742
10936WAT      O44449   4.841   4.647   1.702  0.3375  0.0727 -0.0293
10936WAT     H144450   4.805   4.696   1.765  1.2313 -0.4768  0.9334
10936WAT     H244451   4.779   4.643   1.641 -0.3001  1.1725  0.5210
10936WAT    EPW44452   4.827   4.654   1.702  0.3911  0.6808  0.1078
10937WAT      O44453   3.432   1.720   3.274  0.3658  0.4047 -0.1074
10937WAT     H144454   3.384   1.669   3.221  0.8762 -0.1864 -0.0093
10937WAT     H244455   3.424   1.681   3.351 -1.3534  1.9064  0.5618
10937WAT    EPW44456   3.423   1.707   3.278 -0.5170 -0.1472 -0.3138
10938WAT      O44457   2.799   6.703   4.868 -0.5423 -0.3675 -0.5722
10938WAT     H144458   2.731   6.710   4.923 -0.0162 -0.1768  0.0643
10938WAT     H244459   2.862   6.749   4.907  0.2253 -1.2561 -0.7348
10938WAT    EPW44460   2.798   6.711   4.882 -0.8260 -0.3007  0.3151
10939WAT      O44461   4.677   5.149   6.461 -0.5234 -0.2538  0.4554
10939WAT     H144462   4.604   5.170   6.502 -1.5886 -3.0674  0.2360
10939WAT     H244463   4.651   5.092   6.400  1.7766 -1.0358  0.0855
10939WAT    EPW44464   4.662   5.143   6.458  0.5551 -0.2876 -0.4258
10940WAT      O44465   2.389   6.726   4.309  0.8139 -0.9398 -0.4648
10940WAT     H144466   2.373   6.651   4.266  0.5713 -2.9372  2.8164
10940WAT     H244467   2.331   6.781   4.274 -0.2704 -2.7843 -1.7929
10940WAT    EPW44468   2.378   6.723   4.297 -0.7290 -0.4700 -0.0275
10941WAT      O44469   4.018   6.094   6.792 -0.4052 -0.1019 -0.3317
10941WAT     H144470   4.014   6.139   6.866 -4.1171 -0.4576 -0.1261
10941WAT     H244471   4.067   6.025   6.812 -0.5297  0.3104  1.5080
10941WAT    EPW44472   4.024   6.090   6.806 -0.0713 -0.2831 -0.2696
10942WAT      O44473   1.236   6.226   3.945  0.0317  0.1342  0.4301
10942WAT     H144474   1.177   6.284   3.919 -0.1697 -0.3204 -0.1568
10942WAT     H244475   1.231   6.163   3.884 -1.3365 -1.5761  2.1886
10942WAT    EPW44476   1.227   6.225   3.932 -0.3992 -0.3188 -0.4638
10943WAT      O44477   1.533   0.212   3.159  0.1652  0.4588 -0.7432
10943WAT     H144478   1.535   0.287   3.203  0.3734  0.2608 -0.4076
10943WAT     H244479   1.448   0.193   3.154  0.0733  0.9682 -1.2707
10943WAT    EPW44480   1.521   0.220   3.165 -0.0770  0.1281  0.4916
10944WAT      O44481   5.649   1.446   0.462 -0.4951 -0.3015  0.2504
10944WAT     H144482   5.622   1.524   0.435  2.0939 -0.0981 -2.1864
10944WAT     H244483   5.575   1.401   0.473 -1.9480  1.3659 -1.9627
10944WAT    EPW44484   5.634   1.451   0.460  0.4691 -0.3672  0.1083
10945WAT      O44485   1.682   1.566   2.453 -0.0127 -0.0616 -0.6244
10945WAT     H144486   1.757   1.521   2.454  0.3040  0.4585  0.1619
10945WAT     H244487   1.668   1.583   2.537 -0.4590  0.7701 -0.8586
10945WAT    EPW44488   1.691   1.562   2.466  0.0792 -0.2014 -0.4043
10946WAT      O44489   2.476   6.349   4.339 -0.1546  0.0890 -0.3698
10946WAT     H144490   2.506   6.332   4.259 -0.1997  1.0315 -0.5899
10946WAT     H244491   2.540   6.395   4.376 -0.7121  0.8680 -0.3526
10946WAT    EPW44492   2.490   6.353   4.332 -0.6280  0.0402 -0.0501
10947WAT      O44493   5.916   0.795   0.943 -0.2870  0.0685 -0.2976
10947WAT     H144494   5.921   0.784   0.857 -1.6379 -1.5573 -0.2157
10947WAT     H244495   5.850   0.851   0.953  0.0980  0.5306 -0.3244
10947WAT    EPW44496   5.907   0.801   0.932 -0.1745  0.1930 -0.1784
10948WAT      O44497   6.806   4.292   6.959  0.1724 -0.1578 -0.3761
10948WAT     H144498   6.776   4.242   7.023  0.0992 -0.8134 -0.9166
10948WAT     H244499   6.737   4.340   6.936 -0.4703 -1.5367 -1.4965
10948WAT    EPW44500   6.791   4.292   6.965  0.8298  0.1908 -0.0753
10949WAT      O44501   1.651   7.335   4.908  0.0154 -0.3870  0.2018
10949WAT     H144502   1.591   7.282   4.872 -0.1023  0.5613 -1.0464
10949WAT     H244503   1.724   7.316   4.863 -0.1926  0.9935 -0.7678
10949WAT    EPW44504   1.653   7.324   4.896 -0.4769  0.1982 -0.3108
10950WAT      O44505   0.828   6.146   7.179 -0.0599 -0.6274 -0.4991
10950WAT     H144506   0.750   6.115   7.154 -0.1901  0.3088 -1.3135
10950WAT     H244507   0.853   6.195   7.111  1.0141 -0.5027 -0.0348
10950WAT    EPW44508   0.820   6.148   7.165 -0.4451  0.1244  0.7125
10951WAT      O44509   7.274   1.525   0.944 -0.8025 -0.4697  0.3555
10951WAT     H144510   7.265   1.474   1.014 -2.2297 -0.8233 -0.0587
10951WAT     H244511   7.360   1.524   0.929 -0.5054 -0.6432  1.9006
10951WAT    EPW44512   7.285   1.517   0.952 -0.4704  0.1312  0.0695
10952WAT      O44513   7.133   2.292   2.782  0.1393  0.0347  0.0350
10952WAT     H144514   7.054   2.297   2.819 -0.2699  0.3602 -0.8584
10952WAT     H244515   7.170   2.367   2.805  0.8838 -0.8544  1.9397
10952WAT    EPW44516   7.127   2.304   2.791  0.1830  0.3977 -0.4352
10953WAT      O44517   7.434   4.776   2.164  0.3738 -0.0782  0.0487
10953WAT     H144518   7.462   4.835   2.106 -0.7491 -0.9394 -1.4528
10953WAT     H244519   7.502   4.723   2.173  0.1268 -0.7523 -1.6430
10953WAT    EPW44520   7.448   4.777   2.156  0.1793  0.5163 -0.0600
10954WAT      O44521   3.787   3.693   0.320  0.2787 -0.2848 -0.5901
10954WAT     H144522   3.809   3.776   0.304  0.9755 -0.7339 -2.1904
10954WAT     H244523   3.852   3.647   0.284  0.1126 -1.5416  0.6067
10954WAT    EPW44524   3.800   3.698   0.312 -0.1046 -0.2746 -0.0034
10955WAT      O44525   3.496   6.304   3.574  0.0992  0.2055  0.4278
10955WAT     H144526   3.419   6.328   3.541 -0.6697 -0.9992  1.2809
10955WAT     H244527   3.541   6.278   3.504 -1.0211 -1.0306  0.1367
10955WAT    EPW44528   3.491   6.304   3.559  0.6133  0.4668 -0.1239
10956WAT      O44529   6.505   3.901   6.439  0.6186 -0.1952  0.0604
10956WAT     H144530   6.536   3.829   6.399  1.7365 -0.0470  0.6223
10956WAT     H244531   6.474   3.949   6.373  2.2350 -0.0492 -0.6425
10956WAT    EPW44532   6.505   3.897   6.423 -0.7140  0.4210  0.0055
10957WAT      O44533   3.980   1.726   0.082 -0.9282  0.4525 -0.0476
10957WAT     H144534   3.923   1.741   0.018 -0.6004  1.6086 -0.0833
10957WAT     H244535   3.953   1.779   0.146  0.0951  1.0061 -0.0624
10957WAT    EPW44536   3.967   1.736   0.082  0.1745  0.2790 -0.1855
10958WAT      O44537   0.838   2.530   0.890  0.3622 -0.1622 -0.6596
10958WAT     H144538   0.756   2.556   0.873 -0.0043  0.3599  1.5842
10958WAT     H244539   0.827   2.455   0.934  0.9273  0.8869  1.3914
10958WAT    EPW44540   0.824   2.523   0.894 -0.2257 -0.4191  0.5041
10959WAT      O44541   1.931   7.510   5.092 -0.5520  0.3985 -0.1752
10959WAT     H144542   1.952   7.508   5.008 -0.9131 -0.8281 -0.2509
10959WAT     H244543   1.996   7.467   5.131  0.2738  2.0521  0.3489
10959WAT    EPW44544   1.943   7.504   5.086 -0.1696  0.2505  0.3631
10960WAT      O44545   4.725   3.792   3.571 -0.5557 -0.4439 -0.4824
10960WAT     H144546   4.761   3.871   3.567 -0.2205 -0.6435 -1.9547
10960WAT     H244547   4.742   3.758   3.492  0.4240 -2.4769  0.5533
10960WAT    EPW44548   4.733   3.799   3.558 -0.0801 -0.0565  0.1720
10961WAT      O44549   0.391   2.366   5.917 -0.2501  0.4967 -0.4693
10961WAT     H144550   0.461   2.345   5.870 -2.5392 -1.9011 -3.2469
10961WAT     H244551   0.406   2.330   5.994  1.7538  0.5701 -0.7625
10961WAT    EPW44552   0.403   2.358   5.921 -0.2590 -0.2168  0.0519
10962WAT      O44553   2.877   1.021   0.193 -0.0662 -0.1057 -0.1088
10962WAT     H144554   2.798   1.055   0.207  0.2558  0.5047  0.2890
10962WAT     H244555   2.894   0.978   0.267 -0.3144 -0.8315 -0.4656
10962WAT    EPW44556   2.868   1.019   0.206 -0.3079  0.0930  0.2541
10963WAT      O44557   5.966   5.687   5.001 -0.2587 -0.1462  0.1536
10963WAT     H144558   5.917   5.615   4.998  0.9622 -0.9821 -1.6175
10963WAT     H244559   6.027   5.667   5.060 -0.4496 -0.2026  0.3332
10963WAT    EPW44560   5.968   5.673   5.009 -0.0431 -0.2802 -0.4049
10964WAT      O44561   0.472   2.348   0.765 -0.5657 -0.7112 -0.1191
10964WAT     H144562   0.510   2.397   0.704  0.4758  0.0668  1.1186
10964WAT     H244563   0.453   2.274   0.722  1.2828 -0.6832 -1.0919
10964WAT    EPW44564   0.475   2.344   0.750 -0.4903 -0.4232  0.4262
10965WAT      O44565   0.492   1.378   1.653  0.2544 -0.3943 -0.4597
10965WAT     H144566   0.523   1.348   1.577 -1.2313 -0.0438 -1.2569
10965WAT     H244567   0.409   1.352   1.652  0.3362 -0.7891  1.2912
10965WAT    EPW44568   0.484   1.370   1.641 -0.0264  0.3113 -0.7889
10966WAT      O44569   2.655   0.683   0.413 -0.1383  0.1976 -0.2051
10966WAT     H144570   2.619   0.649   0.341  0.3703  1.0605 -0.8835
10966WAT     H244571   2.588   0.723   0.452 -0.8516 -1.8226  0.8250
10966WAT    EPW44572   2.640   0.684   0.408  0.0786 -0.4385 -0.6769
10967WAT      O44573   0.010   2.745   3.303 -0.4279 -0.1224 -0.1681
10967WAT     H144574   0.018   2.727   3.218  0.0302 -0.7533  0.0007
10967WAT     H244575   0.084   2.712   3.337 -0.8670 -0.3666  0.5538
10967WAT    EPW44576   0.022   2.738   3.295  0.1292  0.0745 -0.3539
10968WAT      O44577   3.038   5.408   3.693 -0.0260 -0.3134  0.2186
10968WAT     H144578   3.049   5.493   3.674 -1.2447 -0.4550 -1.3081
10968WAT     H244579   3.108   5.370   3.659  0.4502  0.0570  0.7684
10968WAT    EPW44580   3.050   5.415   3.685  0.0143  0.4452 -0.5347
10969WAT      O44581   7.390   2.869   3.896  0.0290 -0.1427 -0.9489
10969WAT     H144582   7.442   2.828   3.953  1.4630 -1.6888 -3.2117
10969WAT     H244583   7.416   2.953   3.901 -1.4643  0.2987  2.1833
10969WAT    EPW44584   7.402   2.876   3.905 -0.4917  0.5705  0.1162
10970WAT      O44585   2.661   5.283   2.632 -0.8560  0.6541  0.0769
10970WAT     H144586   2.633   5.256   2.554 -1.3749  1.0675  0.1187
10970WAT     H244587   2.683   5.366   2.619 -0.6664  0.6425  0.3047
10970WAT    EPW44588   2.660   5.291   2.619  0.5737  0.0295 -0.1773
10971WAT      O44589   0.148   6.486   5.782 -0.0942 -0.1209 -0.4702
10971WAT     H144590   0.176   6.406   5.762 -2.7260 -1.4979  0.8031
10971WAT     H244591   0.189   6.503   5.858  1.7842  0.5649 -1.5751
10971WAT    EPW44592   0.158   6.477   5.790 -0.2481  0.1270  0.0675
10972WAT      O44593   3.807   0.449   2.599  0.0902  0.1846 -0.1368
10972WAT     H144594   3.848   0.490   2.534 -1.2915 -0.3095 -1.3920
10972WAT     H244595   3.825   0.365   2.585 -0.4339  0.0551 -0.0596
10972WAT    EPW44596   3.815   0.442   2.587  0.6842  0.0589  0.1532
10973WAT      O44597   2.684   3.270   5.867  0.1417 -0.1015 -0.2745
10973WAT     H144598   2.643   3.324   5.921  0.1074 -0.0045 -0.3978
10973WAT     H244599   2.627   3.258   5.802 -0.7370 -1.9723  0.7581
10973WAT    EPW44600   2.670   3.276   5.865  0.4164 -0.4396 -0.3698
10974WAT      O44601   4.043   4.474   6.408  0.1797  0.2393 -0.0646
10974WAT     H144602   3.988   4.425   6.453  2.2040 -0.6961  1.5890
10974WAT     H244603   4.008   4.554   6.411 -0.4961 -0.0946  1.9534
10974WAT    EPW44604   4.030   4.479   6.415 -0.1468  0.4065 -0.0639
10975WAT      O44605   0.117   5.362   0.458 -0.1726  0.2627  0.5483
10975WAT     H144606   0.183   5.345   0.512 -0.9222 -0.6301  1.2208
10975WAT     H244607   0.053   5.390   0.511 -0.7861 -0.2490  0.0987
10975WAT    EPW44608   0.117   5.364   0.474  0.0669 -0.0204  0.5108
10976WAT      O44609   4.117   5.281   4.524  0.3511 -0.0343  0.0985
10976WAT     H144610   4.138   5.199   4.546 -0.3400 -0.2166  0.0778
10976WAT     H244611   4.194   5.316   4.500  0.3984 -1.1404 -1.4443
10976WAT    EPW44612   4.132   5.274   4.524 -0.1717  0.0632  0.2943
10977WAT      O44613   1.504   7.340   4.380 -0.5276 -0.3391 -0.0718
10977WAT     H144614   1.458   7.399   4.335 -0.7991 -0.5633 -0.0861
10977WAT     H244615   1.495   7.267   4.334 -1.4421 -0.7593  0.7457
10977WAT    EPW44616   1.496   7.338   4.367 -0.2100 -0.3139  0.0449
10978WAT      O44617   3.945   0.814   6.057 -0.0283  0.0440  0.6242
10978WAT     H144618   3.963   0.889   6.098  1.5204 -0.3211  0.6811
10978WAT     H244619   3.890   0.774   6.111  1.3818 -0.0918  2.0254
10978WAT    EPW44620   3.939   0.819   6.071 -0.1067  0.3751 -0.3152
10979WAT      O44621   7.289   1.016   2.517  0.1750  0.1872  0.0440
10979WAT     H144622   7.222   1.048   2.563 -0.1485 -0.8964  0.3420
10979WAT     H244623   7.277   1.051   2.437 -0.9896 -0.3298 -0.0241
10979WAT    EPW44624   7.278   1.026   2.512 -0.1659 -0.5204 -0.1251
10980WAT      O44625   2.882   0.853   0.430 -0.4261 -0.5077  0.1807
10980WAT     H144626   2.805   0.814   0.415  0.0338 -1.8068  1.0453
10980WAT     H244627   2.868   0.899   0.503 -1.0694  1.3502 -1.0216
10980WAT    EPW44628   2.869   0.854   0.439 -0.3603 -0.2583  0.1481
10981WAT      O44629   6.147   1.702   3.007 -0.0703  0.2901 -0.2382
10981WAT     H144630   6.145   1.665   3.086  1.8226  1.1079  0.2532
10981WAT     H244631   6.183   1.641   2.956  3.9793  1.5749  0.7708
10981WAT    EPW44632   6.152   1.688   3.011  0.2078 -1.5605  0.8388
10982WAT      O44633   0.971   2.368   1.113  0.0294  0.0187 -0.0929
10982WAT     H144634   1.018   2.438   1.090 -1.5866  0.1691 -3.5273
10982WAT     H244635   0.937   2.391   1.190 -1.6610  3.8306 -1.7131
10982WAT    EPW44636   0.973   2.382   1.121  0.5573  0.7544 -0.3893
10983WAT      O44637   0.889   6.348   0.241 -0.1154 -0.3324  0.3949
10983WAT     H144638   0.968   6.376   0.219 -0.5850  1.8761  1.1851
10983WAT     H244639   0.899   6.263   0.253  2.4121  0.0496  1.5202
10983WAT    EPW44640   0.902   6.340   0.240 -0.0043  0.2166 -0.8784
10984WAT      O44641   7.580   5.856   0.586  0.0288 -0.0317 -0.5385
10984WAT     H144642   7.632   5.811   0.640 -0.3393  0.2181  0.0307
10984WAT     H244643   7.601   5.939   0.603 -1.5071  0.1502  0.7059
10984WAT    EPW44644   7.591   5.862   0.597  0.8357  0.1884 -0.0601
10985WAT      O44645   6.548   6.890   6.638  0.0562  0.4644 -0.0887
10985WAT     H144646   6.629   6.922   6.647 -0.1612  1.7236 -2.0406
10985WAT     H244647   6.509   6.947   6.584 -1.6017 -1.0057 -0.5312
10985WAT    EPW44648   6.554   6.903   6.631  0.1018  0.5802 -0.0729
10986WAT      O44649   7.064   7.491   6.613 -0.8650  0.1059  0.4596
10986WAT     H144650   7.003   7.450   6.566  0.9869 -1.1375 -1.0240
10986WAT     H244651   7.118   7.427   6.637  1.9704  1.4773 -1.6331
10986WAT    EPW44652   7.063   7.476   6.610 -0.1317 -0.3744 -0.3137
10987WAT      O44653   7.460   3.083   6.363  0.4319 -0.2828 -0.5769
10987WAT     H144654   7.532   3.063   6.407  0.4128 -0.9415 -0.8231
10987WAT     H244655   7.450   3.168   6.377  0.6048 -0.4064  0.4205
10987WAT    EPW44656   7.469   3.092   6.372  0.2130 -0.1436  0.4499
10988WAT      O44657   7.359   2.862   3.588  0.3981 -0.0357 -0.4827
10988WAT     H144658   7.361   2.783   3.552 -1.2629 -0.8458  1.0010
10988WAT     H244659   7.440   2.873   3.619  0.1367 -2.1568  1.1823
10988WAT    EPW44660   7.371   2.852   3.587  0.0948 -0.4448  0.4321
10989WAT      O44661   3.791   3.881   6.834 -0.1193 -0.7539  0.2214
10989WAT     H144662   3.804   3.828   6.902  3.1551  1.7850  1.8605
10989WAT     H244663   3.863   3.871   6.786 -0.2741  0.7950 -0.3925
10989WAT    EPW44664   3.804   3.872   6.837 -0.4054  0.4670 -0.1402
10990WAT      O44665   6.854   0.496   3.381  0.1399  0.5364 -0.1790
10990WAT     H144666   6.840   0.569   3.335  0.4628 -0.4771 -1.9734
10990WAT     H244667   6.937   0.505   3.408  0.1660  0.8570 -0.3593
10990WAT    EPW44668   6.864   0.508   3.378  0.1808 -0.0418  0.3599
10991WAT      O44669   6.152   2.798   5.982 -0.2263 -0.2802 -0.2913
10991WAT     H144670   6.200   2.871   5.980 -0.3852 -0.2011 -1.6389
10991WAT     H244671   6.091   2.812   5.922 -0.3716 -1.4492 -0.4364
10991WAT    EPW44672   6.150   2.811   5.973  0.3032 -0.5378  0.0127
10992WAT      O44673   4.554   2.823   6.731 -0.2243  0.1785 -0.6601
10992WAT     H144674   4.592   2.888   6.775  0.4377 -0.3126 -0.4899
10992WAT     H244675   4.620   2.769   6.713 -0.5546  0.1399 -1.8668
10992WAT    EPW44676   4.569   2.825   6.735  0.5271  0.1025  0.3921
10993WAT      O44677   3.147   2.864   0.513 -0.2604  0.6792  0.6592
10993WAT     H144678   3.163   2.859   0.427 -1.1623  1.9316  0.4012
10993WAT     H244679   3.202   2.925   0.540 -1.3050  1.6747  0.6007
10993WAT    EPW44680   3.157   2.872   0.504  0.0693  0.3418  0.2398
10994WAT      O44681   4.994   4.518   4.610  0.0203 -0.0378  0.2315
10994WAT     H144682   5.029   4.469   4.548  0.7476  0.1570  0.4746
10994WAT     H244683   5.001   4.599   4.578  0.2056  0.0425  0.4729
10994WAT    EPW44684   5.000   4.523   4.596 -0.3869  0.0626  0.5566
10995WAT      O44685   1.968   4.123   0.934  0.2920 -0.3116 -0.2406
10995WAT     H144686   2.007   4.057   0.975  1.3737  0.8850  0.7140
10995WAT     H244687   1.959   4.184   0.996 -0.7668  0.4126 -1.0711
10995WAT    EPW44688   1.972   4.122   0.949 -0.5227  0.9786 -0.1682
10996WAT      O44689   1.627   5.768   5.142  0.4364  0.1676 -0.1339
10996WAT     H144690   1.680   5.837   5.135  0.2680  0.5254  1.6854
10996WAT     H244691   1.567   5.783   5.080 -0.0320  2.0986  0.6811
10996WAT    EPW44692   1.626   5.781   5.132 -0.2062  0.6427 -0.0624
10997WAT      O44693   1.476   0.614   7.209  0.2099  0.3375  0.3861
10997WAT     H144694   1.520   0.644   7.278  2.0416 -1.6692  0.2261
10997WAT     H244695   1.422   0.555   7.244  0.4759 -0.0055  0.2325
10997WAT    EPW44696   1.475   0.610   7.224 -0.2242  0.4048  0.1213
10998WAT      O44697   6.701   5.063   2.699 -0.0629 -0.2106 -0.2913
10998WAT     H144698   6.724   5.054   2.783 -1.7948 -2.3990  0.0309
10998WAT     H244699   6.703   5.149   2.686  1.0175  0.1239  1.7437
10998WAT    EPW44700   6.705   5.074   2.709  1.1049 -0.6602  0.1536
10999WAT      O44701   3.066   0.660   0.352 -0.7705 -0.6206  0.3939
10999WAT     H144702   3.029   0.674   0.274  1.7366  2.1816 -0.4667
10999WAT     H244703   3.022   0.713   0.405  0.0396  0.4566  0.0084
10999WAT    EPW44704   3.054   0.670   0.348  0.5704  0.4484  0.3049
11000WAT      O44705   4.099   2.818   5.532 -1.1600  0.3043  0.2380
11000WAT     H144706   4.075   2.900   5.514 -1.2211  0.7067  2.0022
11000WAT     H244707   4.184   2.817   5.516 -1.3616  0.3478 -0.9510
11000WAT    EPW44708   4.108   2.830   5.527 -0.2122 -0.4472 -0.1420
11001WAT      O44709   0.076   7.128   2.359 -0.1921  0.4280  0.2777
11001WAT     H144710   0.053   7.153   2.278  2.1564  0.2436 -0.5241
11001WAT     H244711   0.119   7.054   2.346 -0.2928  0.0820  1.7876
11001WAT    EPW44712   0.079   7.121   2.345 -0.3039  0.8543 -0.2827
11002WAT      O44713   4.328   0.895   5.441  0.9587  0.5062  0.5030
11002WAT     H144714   4.244   0.904   5.421  0.2447 -3.2544  1.0596
11002WAT     H244715   4.361   0.851   5.374  1.1692 -2.4231  2.3537
11002WAT    EPW44716   4.321   0.890   5.428 -0.5805  0.4099  0.7372
11003WAT      O44717   2.068   2.974   4.041 -0.4685 -0.3508 -0.0987
11003WAT     H144718   1.985   2.982   4.016 -0.7127  0.4266  0.9318
11003WAT     H244719   2.105   3.049   4.015 -0.0800 -0.6796 -0.5286
11003WAT    EPW44720   2.061   2.986   4.033  0.2666 -0.2604 -0.5879
11004WAT      O44721   5.458   4.380   3.077 -0.0485 -0.3163  0.4072
11004WAT     H144722   5.481   4.296   3.080 -1.6210 -0.7812  0.5377
11004WAT     H244723   5.471   4.402   2.994 -0.1198 -0.8499  0.2472
11004WAT    EPW44724   5.463   4.371   3.066 -0.8037 -0.5355 -0.1458
11005WAT      O44725   0.049   0.906   3.804  0.4151 -0.1351 -0.4311
11005WAT     H144726   0.034   0.986   3.774  0.3646  0.3520  0.8488
11005WAT     H244727   0.067   0.860   3.732  2.7870  1.5261 -1.0255
11005WAT    EPW44728   0.050   0.911   3.789 -0.5161 -0.7905  0.3159
11006WAT      O44729   3.665   3.187   5.913  0.2739 -0.3585 -0.1619
11006WAT     H144730   3.669   3.264   5.955 -0.3016 -0.2147 -0.3616
11006WAT     H244731   3.590   3.192   5.869 -0.6740 -1.7235  1.2065
11006WAT    EPW44732   3.654   3.199   5.913  0.5565  0.1773 -0.2417
11007WAT      O44733   7.225   5.868   1.685  0.2256 -0.3618  0.2431
11007WAT     H144734   7.224   5.801   1.741  1.1677 -0.4741  0.1563
11007WAT     H244735   7.301   5.907   1.702 -0.1020  0.4101 -0.0324
11007WAT    EPW44736   7.236   5.864   1.696 -0.1130 -0.3317  0.3818
11008WAT      O44737   1.606   0.923   5.122  0.3449 -0.2985  0.0291
11008WAT     H144738   1.659   0.854   5.114 -2.9496 -3.3426  1.5640
11008WAT     H244739   1.598   0.953   5.041 -1.0369 -4.3572 -1.6216
11008WAT    EPW44740   1.613   0.917   5.109 -0.0996 -0.0153  0.3313
11009WAT      O44741   5.373   6.547   1.648 -0.4759 -0.2717  0.2421
11009WAT     H144742   5.374   6.482   1.590 -1.3500 -0.8114  0.8159
11009WAT     H244743   5.321   6.518   1.712  0.4096  0.3354  1.2832
11009WAT    EPW44744   5.366   6.533   1.649  0.4635  0.1823 -0.0940
11010WAT      O44745   0.539   3.068   3.196 -0.0081 -0.2488 -0.4382
11010WAT     H144746   0.483   3.129   3.224  0.6198 -0.5423  1.5700
11010WAT     H244747   0.499   3.033   3.126 -0.9995  1.4798 -0.7768
11010WAT    EPW44748   0.525   3.072   3.190  0.4088 -0.3715 -0.0696
11011WAT      O44749   5.012   0.559   6.212  0.0339 -0.5340 -0.2228
11011WAT     H144750   4.933   0.572   6.178  0.3142 -0.1811 -0.7542
11011WAT     H244751   5.005   0.482   6.253 -0.8871  0.0104  0.6640
11011WAT    EPW44752   5.000   0.549   6.213  0.1425  0.1490  0.1452
11012WAT      O44753   2.202   0.321   2.799 -0.2029 -0.4412  0.5596
11012WAT     H144754   2.250   0.295   2.730 -1.2515  0.0164 -0.3717
11012WAT     H244755   2.262   0.351   2.854  0.5540  1.7279 -1.2739
11012WAT    EPW44756   2.218   0.322   2.797  0.4965  0.2950 -0.7581
11013WAT      O44757   4.680   5.638   3.943 -0.1607  0.1581  0.4179
11013WAT     H144758   4.638   5.707   3.909 -1.7337 -1.4621 -1.1256
11013WAT     H244759   4.681   5.656   4.029 -3.8735  0.4767  0.5753
11013WAT    EPW44760   4.674   5.651   3.951 -0.1493  0.0605 -0.0028
11014WAT      O44761   4.753   3.268   5.892 -0.7841 -0.1542  0.0121
11014WAT     H144762   4.781   3.351   5.892  0.0593 -0.4061 -1.3454
11014WAT     H244763   4.799   3.231   5.957 -0.9051  0.3564  0.3904
11014WAT    EPW44764   4.764   3.275   5.901  0.2009 -0.3095 -0.1598
11015WAT      O44765   1.923   1.172   2.517 -0.2033 -0.0400 -0.3988
11015WAT     H144766   1.843   1.135   2.518 -0.5129  0.5894  1.0379
11015WAT     H244767   1.938   1.185   2.432 -0.6489 -2.2206 -0.8945
11015WAT    EPW44768   1.913   1.168   2.505 -0.1604  0.2712 -0.5736
11016WAT      O44769   2.876   5.855   6.585 -0.0190 -0.2000  0.2191
11016WAT     H144770   2.866   5.820   6.505  4.2035 -2.6735  0.4336
11016WAT     H244771   2.878   5.785   6.637  0.2942  1.1133  2.0580
11016WAT    EPW44772   2.875   5.839   6.581  0.5765 -0.7280 -0.3730
11017WAT      O44773   3.784   0.152   1.743  0.4017  0.0938  0.3853
11017WAT     H144774   3.766   0.122   1.663 -1.5958 -0.0616  0.8414
11017WAT     H244775   3.757   0.235   1.741 -0.6729 -0.2093  1.1700
11017WAT    EPW44776   3.777   0.160   1.731 -0.2808 -0.0553 -0.2444
11018WAT      O44777   0.881   0.595   1.767  0.7870  0.2728 -0.1042
11018WAT     H144778   0.932   0.662   1.788  0.4050  0.7102 -0.5491
11018WAT     H244779   0.800   0.625   1.780  0.5597  0.3580 -1.5415
11018WAT    EPW44780   0.876   0.609   1.772  0.1726 -0.1595  0.2106
11019WAT      O44781   5.568   2.490   2.571 -0.4844 -0.0465  0.1836
11019WAT     H144782   5.498   2.443   2.591 -1.2259  1.3583  1.0306
11019WAT     H244783   5.628   2.465   2.629 -1.0058  0.3410  0.8974
11019WAT    EPW44784   5.567   2.480   2.582  0.8717  0.3255 -0.0566
11020WAT      O44785   3.551   0.991   2.952 -0.6022  0.0424  0.3165
11020WAT     H144786   3.561   1.077   2.951 -1.5428  0.1653 -0.9532
11020WAT     H244787   3.526   0.972   2.871 -0.3254 -1.4421  0.5480
11020WAT    EPW44788   3.549   1.001   2.940 -0.3881 -0.0295  0.6658
11021WAT      O44789   4.892   4.796   3.043  0.3812  0.2923 -0.3507
11021WAT     H144790   4.919   4.864   2.996 -2.2422  1.0136 -0.9802
11021WAT     H244791   4.842   4.751   2.988 -0.8314 -0.1852  1.0707
11021WAT    EPW44792   4.889   4.799   3.028  0.4121 -0.0853  0.2402
11022WAT      O44793   4.937   4.203   4.688 -0.0675  0.2564  0.0974
11022WAT     H144794   4.953   4.272   4.638  1.7151 -0.1421  0.0683
11022WAT     H244795   5.010   4.156   4.683 -1.3851 -1.8972 -0.2838
11022WAT    EPW44796   4.950   4.206   4.680 -0.1911  0.0715 -0.3481
11023WAT      O44797   3.027   4.206   6.895  0.6604  0.0998 -0.2682
11023WAT     H144798   3.078   4.235   6.959  1.0490  0.1200 -0.5789
11023WAT     H244799   2.964   4.161   6.936  1.2944 -0.4774  0.0806
11023WAT    EPW44800   3.025   4.204   6.910 -0.1829  0.1758  0.3234
11024WAT      O44801   0.544   4.140   7.620 -0.0554  0.1298 -0.1286
11024WAT     H144802   0.603   4.089   7.658 -0.7072 -0.6292 -0.1215
11024WAT     H244803   0.553   4.122   7.535 -1.3922 -1.2656 -0.0270
11024WAT    EPW44804   0.554   4.130   7.613 -0.0184  0.5130 -0.1784
11025WAT      O44805   5.375   2.958   4.516  0.2210  0.2821  1.1741
11025WAT     H144806   5.359   2.888   4.466  1.2572 -0.3528  1.6874
11025WAT     H244807   5.394   3.021   4.459  1.1359 -0.3576  0.7540
11025WAT    EPW44808   5.375   2.957   4.500  0.2731  0.3351  0.8970
11026WAT      O44809   0.633   2.453   1.127 -0.2275  0.3110  0.1866
11026WAT     H144810   0.560   2.501   1.118 -0.1035  0.6699  0.9920
11026WAT     H244811   0.693   2.512   1.151  0.4174  0.0730 -0.7578
11026WAT    EPW44812   0.631   2.469   1.129 -0.3828 -0.4090 -0.6471
11027WAT      O44813   6.959   0.860   2.997  0.0283 -0.4993 -0.1449
11027WAT     H144814   6.895   0.914   3.023  0.5301  0.3771 -0.6867
11027WAT     H244815   6.919   0.806   2.941  0.0139  0.8888 -1.5243
11027WAT    EPW44816   6.943   0.860   2.993 -0.1483  0.1067  0.2853
11028WAT      O44817   6.773   1.599   7.561  0.0388  0.1788  0.5017
11028WAT     H144818   6.834   1.614   7.500 -0.3416 -3.8468 -1.1491
11028WAT     H244819   6.698   1.607   7.517 -0.3145 -0.9795  0.8593
11028WAT    EPW44820   6.771   1.603   7.545  0.8183 -0.1180  0.2481
11029WAT      O44821   3.387   1.215   2.780  0.2578  0.5270 -0.2783
11029WAT     H144822   3.313   1.177   2.755  1.1377 -2.5133  1.1612
11029WAT     H244823   3.449   1.163   2.747  1.5646  0.3605  2.1731
11029WAT    EPW44824   3.385   1.202   2.772 -0.0391 -0.0513 -0.4971
11030WAT      O44825   0.257   5.736   5.095  0.2976 -0.4090  0.0523
11030WAT     H144826   0.300   5.730   5.020 -1.1914  1.2689 -1.0233
11030WAT     H244827   0.281   5.814   5.126 -0.5299 -0.2568  0.3356
11030WAT    EPW44828   0.267   5.747   5.088 -0.4484  0.1138  0.5458
11031WAT      O44829   2.010   7.441   4.824 -0.1837 -0.2164  0.4530
11031WAT     H144830   2.097   7.434   4.825  0.0295  0.3357 -3.3207
11031WAT     H244831   1.983   7.358   4.825  0.5836 -0.5383 -1.4036
11031WAT    EPW44832   2.019   7.427   4.825  0.5493 -0.6392 -0.3884
11032WAT      O44833   4.370   6.400   3.028  0.5883 -0.4048 -0.5485
11032WAT     H144834   4.449   6.363   3.022  0.9099  0.2885 -0.6554
11032WAT     H244835   4.387   6.485   3.026 -0.1875 -0.2509 -0.8768
11032WAT    EPW44836   4.385   6.407   3.027 -0.6884  0.6109  0.1179
11033WAT      O44837   2.108   0.569   7.049  0.0337  0.5720 -0.2829
11033WAT     H144838   2.072   0.641   7.017  0.6292 -0.3761 -3.4121
11033WAT     H244839   2.194   0.583   7.038  0.2045 -0.2481 -0.0435
11033WAT    EPW44840   2.116   0.582   7.043  0.1332 -0.2001 -0.8944
11034WAT      O44841   4.958   5.775   2.192  0.2648  0.0095 -0.2362
11034WAT     H144842   4.885   5.797   2.234 -0.0069  0.1922 -0.7901
11034WAT     H244843   4.931   5.762   2.110  0.5260 -1.7137 -0.0946
11034WAT    EPW44844   4.943   5.776   2.186  0.3259  0.4208  0.0823
11035WAT      O44845   4.256   2.073   6.155  0.0474 -0.5305  0.1475
11035WAT     H144846   4.203   2.136   6.126 -0.7448 -1.6572 -0.9505
11035WAT     H244847   4.288   2.106   6.229 -0.1042  1.2731 -0.5406
11035WAT    EPW44848   4.253   2.087   6.162  0.1350  0.4832  0.7142
11036WAT      O44849   6.273   7.016   3.560  0.1827 -0.0520  0.3011
11036WAT     H144850   6.271   7.082   3.616  0.6437 -0.4849  0.8529
11036WAT     H244851   6.335   7.039   3.503 -1.2311  1.0188 -0.8758
11036WAT    EPW44852   6.282   7.029   3.560 -0.0818 -0.2952 -0.0713
11037WAT      O44853   6.748   5.487   3.754 -0.1184  0.2710  0.5460
11037WAT     H144854   6.801   5.556   3.763  1.3714 -0.4308 -1.7882
11037WAT     H244855   6.787   5.426   3.803  2.0112 -0.5464 -1.9284
11037WAT    EPW44856   6.762   5.488   3.763  0.3288  0.0758 -0.6814
11038WAT      O44857   2.288   0.597   5.492 -0.4711 -0.3187 -0.0746
11038WAT     H144858   2.257   0.517   5.509  1.0555 -1.1787 -1.1445
11038WAT     H244859   2.374   0.587   5.491 -0.2632  1.1531 -1.1252
11038WAT    EPW44860   2.296   0.584   5.495  0.0002 -0.2492  0.5892
11039WAT      O44861   6.109   4.565   4.227  0.1363  0.2987  0.4616
11039WAT     H144862   6.155   4.588   4.297  2.1829 -2.8941  0.3698
11039WAT     H244863   6.027   4.560   4.257  0.3241  2.5051  1.5916
11039WAT    EPW44864   6.104   4.568   4.242 -0.3155 -0.8859  0.2294
11040WAT      O44865   3.070   0.682   4.128  0.2861 -0.0680 -0.2196
11040WAT     H144866   3.065   0.769   4.120 -1.6626 -0.2178 -1.4963
11040WAT     H244867   2.986   0.658   4.139  0.9161 -1.6927  1.7165
11040WAT    EPW44868   3.057   0.691   4.129 -0.4017 -0.1678  0.5316
11041WAT      O44869   0.857   3.655   6.300 -0.4912 -0.1630 -0.5918
11041WAT     H144870   0.779   3.618   6.289 -0.1359 -0.9343 -0.5959
11041WAT     H244871   0.906   3.618   6.238  0.0065 -0.0577 -0.2650
11041WAT    EPW44872   0.853   3.644   6.289 -0.6302  0.1719  0.6689
11042WAT      O44873   1.059   0.072   5.835 -0.2029  0.1549 -0.0889
11042WAT     H144874   1.108   0.142   5.852 -0.8668  0.8887 -1.0100
11042WAT     H244875   0.985   0.107   5.804 -1.3693 -0.9083  1.3729
11042WAT    EPW44876   1.055   0.088   5.833  0.3222 -0.2383  0.2818
11043WAT      O44877   3.008   1.292   1.201  0.3176  0.2911 -0.0419
11043WAT     H144878   3.090   1.323   1.194  0.4806 -0.2352 -0.5586
11043WAT     H244879   2.960   1.364   1.211  1.0294  0.5139  2.4187
11043WAT    EPW44880   3.013   1.307   1.201 -0.8732 -0.0929  0.0094
11044WAT      O44881   5.515   2.174   2.356 -0.6288 -0.0043  0.0844
11044WAT     H144882   5.587   2.129   2.378  0.5559  1.3937 -0.7680
11044WAT     H244883   5.509   2.163   2.270 -0.4029  1.2914 -0.1237
11044WAT    EPW44884   5.525   2.166   2.347 -0.1090 -0.5208 -0.2748
11045WAT      O44885   2.931   1.495   1.799  0.4274  0.1440 -0.2409
11045WAT     H144886   3.016   1.512   1.808 -0.1398  3.3644  0.3412
11045WAT     H244887   2.902   1.562   1.751 -1.9595 -0.2928  0.4613
11045WAT    EPW44888   2.940   1.508   1.793  0.3107 -0.6111  0.1392
11046WAT      O44889   3.482   5.598   1.473  0.4339  0.0885 -0.3581
11046WAT     H144890   3.480   5.579   1.388  0.2787 -0.4817 -0.2307
11046WAT     H244891   3.517   5.678   1.476  0.3255  0.1585 -0.9651
11046WAT    EPW44892   3.487   5.607   1.461  0.4823 -0.2851 -0.1478
11047WAT      O44893   1.442   4.417   7.452 -0.3801 -0.9703  0.0010
11047WAT     H144894   1.437   4.438   7.367 -0.7747  2.9315  0.7692
11047WAT     H244895   1.520   4.449   7.476 -0.1058 -2.3595  1.0733
11047WAT    EPW44896   1.453   4.425   7.443 -0.3900  0.4462  0.5488
11048WAT      O44897   5.070   7.328   0.589 -0.5764  0.0434  0.3136
11048WAT     H144898   5.146   7.347   0.628 -0.9121  0.5789  0.7313
11048WAT     H244899   5.093   7.276   0.523  0.0466 -0.6784  1.0719
11048WAT    EPW44900   5.085   7.323   0.585  0.0332 -0.3128 -0.2474
11049WAT      O44901   6.030   3.304   5.897  0.1277 -0.2203  0.3593
11049WAT     H144902   6.043   3.242   5.836  1.9174  0.1167  0.3497
11049WAT     H244903   6.017   3.377   5.850  1.5048  0.0390  0.3591
11049WAT    EPW44904   6.030   3.305   5.881 -0.3489  0.2885 -0.3251
11050WAT      O44905   2.574   3.129   3.770  0.6372  0.3494 -0.2276
11050WAT     H144906   2.587   3.186   3.705 -0.7164  1.0254  0.0633
11050WAT     H244907   2.655   3.107   3.794  1.1932  1.6776 -0.7719
11050WAT    EPW44908   2.588   3.134   3.764 -0.2259  0.3709 -0.5718
11051WAT      O44909   2.731   3.896   5.546 -0.5119  0.5810 -0.2342
11051WAT     H144910   2.775   3.969   5.532 -1.2155  1.0910  0.1275
11051WAT     H244911   2.779   3.853   5.604 -0.5562  1.1943  0.2656
11051WAT    EPW44912   2.744   3.900   5.553  0.6569  0.3814  0.2965
11052WAT      O44913   1.975   0.917   2.677  0.5468  0.0877  0.0678
11052WAT     H144914   1.986   0.998   2.645 -1.0346  0.3671  0.1679
11052WAT     H244915   2.025   0.917   2.748  1.9443  0.3714 -0.8606
11052WAT    EPW44916   1.984   0.929   2.683 -0.2540  0.1363 -0.2013
11053WAT      O44917   3.775   1.116   1.496 -0.0222 -0.6636 -0.2512
11053WAT     H144918   3.838   1.058   1.477  0.2197 -0.4175 -0.2157
11053WAT     H244919   3.704   1.081   1.460  0.8429  0.9809 -4.0518
11053WAT    EPW44920   3.774   1.102   1.488  0.2505  0.7884  0.1086
11054WAT      O44921   7.455   5.006   6.042 -0.5737  0.0211 -0.0513
11054WAT     H144922   7.415   5.010   5.965  1.5410  1.4539 -1.1892
11054WAT     H244923   7.464   5.090   6.064  1.3240 -0.2335  0.3259
11054WAT    EPW44924   7.451   5.019   6.034 -0.3465  0.3885 -0.3420
11055WAT      O44925   1.151   5.745   5.467 -0.0084 -0.4668 -0.3196
11055WAT     H144926   1.238   5.744   5.470 -0.0151 -0.5820 -0.1265
11055WAT     H244927   1.130   5.661   5.463 -0.1660 -0.5692  1.6323
11055WAT    EPW44928   1.161   5.733   5.467 -0.0167  0.0490  0.4862
11056WAT      O44929   1.907   6.749   6.658 -0.4948  0.1694 -0.5095
11056WAT     H144930   1.844   6.708   6.614 -0.3819 -0.4486 -0.1181
11056WAT     H244931   1.976   6.742   6.606 -0.7930  1.0330 -1.0340
11056WAT    EPW44932   1.908   6.742   6.644 -0.8791 -0.3733 -0.2731
11057WAT      O44933   7.168   0.303   1.742  0.0538  0.6987 -0.3702
11057WAT     H144934   7.131   0.380   1.724 -1.2238  0.5022  1.1291
11057WAT     H244935   7.240   0.325   1.786  0.6621  1.0459 -1.5030
11057WAT    EPW44936   7.173   0.318   1.746 -0.5735 -0.0679 -0.3364
11058WAT      O44937   0.038   0.132   2.145  0.7181 -0.7931 -0.3735
11058WAT     H144938   0.068   0.062   2.188 -0.7961 -1.1041  0.2355
11058WAT     H244939  -0.021   0.099   2.090 -0.6671  0.0527  0.5406
11058WAT    EPW44940   0.034   0.117   2.143 -0.0632 -0.6056 -0.4347
11059WAT      O44941   2.367   0.036   4.821  0.2856  0.3126 -0.1753
11059WAT     H144942   2.302   0.092   4.807 -0.1832 -0.2714 -0.3844
11059WAT     H244943   2.402   0.063   4.896 -0.1637  0.6627 -0.0870
11059WAT    EPW44944   2.363   0.048   4.830 -0.5307  0.6446 -0.1489
11060WAT      O44945   7.461   7.163   1.117  0.2201 -0.9638 -0.3675
11060WAT     H144946   7.495   7.231   1.160  1.6997 -1.0978 -1.2396
11060WAT     H244947   7.436   7.109   1.180 -3.1395  1.2368  0.4722
11060WAT    EPW44948   7.462   7.165   1.132 -0.2971  0.1172 -0.1551
11061WAT      O44949   1.279   1.899   4.710  0.3231  0.7739  0.3983
11061WAT     H144950   1.201   1.884   4.746  0.1287  0.6289 -0.0734
11061WAT     H244951   1.332   1.846   4.755 -0.2290 -0.8323 -0.7152
11061WAT    EPW44952   1.275   1.889   4.722  0.1470  0.1679  0.0917
11062WAT      O44953   4.975   1.570   5.464 -0.1846 -0.5169  0.1633
11062WAT     H144954   4.889   1.556   5.456 -0.0054 -0.9129 -1.2491
11062WAT     H244955   5.008   1.489   5.468  0.2232 -0.3979 -0.5960
11062WAT    EPW44956   4.967   1.556   5.464 -0.1062 -0.3809  0.5960
11063WAT      O44957   2.768   6.494   2.940  0.1697  1.0643 -0.0132
11063WAT     H144958   2.721   6.483   2.867  0.0505 -0.5302  0.2774
11063WAT     H244959   2.849   6.474   2.915 -0.0140 -0.4209  0.4721
11063WAT    EPW44960   2.773   6.490   2.925 -0.5522  0.5620 -0.6583
11064WAT      O44961   6.450   5.434   2.312  1.1144 -0.1547  0.2948
11064WAT     H144962   6.446   5.464   2.394 -0.0506 -2.5216  1.1833
11064WAT     H244963   6.465   5.506   2.265 -0.1843  1.5998  2.3768
11064WAT    EPW44964   6.452   5.449   2.317 -0.3035  0.1262  0.1382
11065WAT      O44965   2.018   1.165   5.038  0.2456 -0.3995 -0.1117
11065WAT     H144966   2.025   1.089   5.080  1.0795  0.7449  1.9525
11065WAT     H244967   1.965   1.212   5.090  0.0714  0.5706 -1.1347
11065WAT    EPW44968   2.011   1.161   5.052 -0.1594  0.0805  0.0529
11066WAT      O44969   2.397   1.920   4.490 -0.3784 -0.8276 -0.2490
11066WAT     H144970   2.473   1.883   4.470 -0.1931 -0.0726 -1.0048
11066WAT     H244971   2.414   1.966   4.562  0.0913 -0.0259 -0.8609
11066WAT    EPW44972   2.410   1.921   4.497 -0.0257 -0.2471 -0.0843
11067WAT      O44973   7.382   6.212   4.330  0.4892 -0.4163 -0.0104
11067WAT     H144974   7.355   6.290   4.302 -1.1917  0.1130  2.6987
11067WAT     H244975   7.453   6.196   4.282 -0.9486  1.2135 -2.9579
11067WAT    EPW44976   7.388   6.221   4.319  0.2566  0.7613 -0.3812
11068WAT      O44977   0.236   4.548   0.743 -0.4010 -0.2493  0.0251
11068WAT     H144978   0.277   4.571   0.817 -0.2677  0.2722 -0.2037
11068WAT     H244979   0.297   4.506   0.698 -0.2179  0.2119 -0.1623
11068WAT    EPW44980   0.251   4.545   0.747 -0.0281 -0.0771  0.1971
11069WAT      O44981   7.536   5.902   2.978 -0.2362 -0.4581 -0.3390
11069WAT     H144982   7.608   5.941   3.006 -0.5044 -0.7617  0.8031
11069WAT     H244983   7.533   5.828   3.023 -1.2241 -0.4715 -0.3991
11069WAT    EPW44984   7.546   5.897   2.989 -0.2204  0.2807 -0.5993
11070WAT      O44985   5.083   3.024   1.699  0.0858 -0.6402  0.0439
11070WAT     H144986   5.004   3.050   1.671  0.4691  0.5562 -0.0110
11070WAT     H244987   5.136   3.045   1.632  0.4032 -1.8017 -0.0853
11070WAT    EPW44988   5.079   3.031   1.685  0.6736  0.2613 -0.1362
11071WAT      O44989   1.379   4.645   2.292  0.5017  0.1584 -0.5881
11071WAT     H144990   1.454   4.599   2.297  0.6218  0.4191  0.1699
11071WAT     H244991   1.397   4.718   2.337 -0.2200  0.2134 -0.3810
11071WAT    EPW44992   1.393   4.649   2.299  0.3321 -0.3220 -0.0236
11072WAT      O44993   1.352   0.371   4.309 -0.4059 -0.0398  0.4475
11072WAT     H144994   1.421   0.337   4.352 -0.0140  2.8434  2.3465
11072WAT     H244995   1.284   0.326   4.340  0.1698  0.2303  2.2302
11072WAT    EPW44996   1.352   0.359   4.320  0.4325  0.4176  0.5996
11073WAT      O44997   1.595   3.654   4.350 -0.1670 -0.3313 -0.3168
11073WAT     H144998   1.510   3.638   4.339 -0.6243  0.2255  1.9332
11073WAT     H244999   1.634   3.593   4.301 -1.8756 -3.0515  1.4511
11073WAT    EPW45000   1.589   3.642   4.341  0.2500  0.6457 -0.8428
11074WAT      O45001   2.721   2.867   7.451 -0.1425  0.0004  0.1263
11074WAT     H145002   2.735   2.947   7.420  2.0040 -0.1197  0.6212
11074WAT     H245003   2.725   2.817   7.379  0.4537  0.1408  0.0613
11074WAT    EPW45004   2.723   2.871   7.436  0.1499  0.3951  0.1057
11075WAT      O45005   3.703   1.247   4.736 -0.5580  0.3822 -0.6598
11075WAT     H145006   3.743   1.298   4.794 -0.2945 -0.3439 -0.1895
11075WAT     H245007   3.619   1.268   4.745 -0.5025  0.3898 -0.1248
11075WAT    EPW45008   3.697   1.257   4.745 -0.4253 -0.0651  0.0308
11076WAT      O45009   6.707   1.180   1.342  0.1170  0.5081 -0.0770
11076WAT     H145010   6.757   1.111   1.359  1.5570  1.9239  1.9463
11076WAT     H245011   6.626   1.148   1.341  0.7060 -1.1335  1.3314
11076WAT    EPW45012   6.702   1.165   1.344  0.4182 -0.1200 -0.4662
11077WAT      O45013   5.430   4.743   7.359  0.5132  0.4262  0.5200
11077WAT     H145014   5.431   4.725   7.274 -1.2138 -0.2315  0.6061
11077WAT     H245015   5.443   4.830   7.362  0.9588  0.3988 -0.3736
11077WAT    EPW45016   5.432   4.753   7.347  0.2564 -0.0651  0.3122
11078WAT      O45017   6.788   7.179   0.095 -0.1726  0.4739 -0.0675
11078WAT     H145018   6.728   7.231   0.131 -0.2021  1.4009 -1.3864
11078WAT     H245019   6.864   7.218   0.114  0.2773 -1.5600  3.0430
11078WAT    EPW45020   6.790   7.193   0.103 -0.0071 -0.5350  0.3534
11079WAT      O45021   6.558   2.624   6.495  0.5134 -0.0929 -0.0795
11079WAT     H145022   6.569   2.698   6.540 -0.8672  0.5017 -0.6522
11079WAT     H245023   6.637   2.588   6.495  1.4350  1.8131 -0.5037
11079WAT    EPW45024   6.571   2.630   6.501  0.0123  0.3343  0.2404
11080WAT      O45025   1.065   6.401   6.322  0.1936  0.0790 -0.3967
11080WAT     H145026   0.981   6.381   6.333 -0.0035  1.2397  0.4071
11080WAT     H245027   1.063   6.480   6.286  0.9502 -0.5250 -1.8483
11080WAT    EPW45028   1.052   6.409   6.318 -0.2901  0.4371  0.0079
11081WAT      O45029   5.022   0.638   7.367 -0.5307  0.1991 -0.0017
11081WAT     H145030   5.056   0.717   7.353 -1.4426  0.4015 -1.2730
11081WAT     H245031   5.043   0.621   7.449  3.5601 -0.1628 -0.9269
11081WAT    EPW45032   5.030   0.647   7.377  0.1102 -0.2795 -0.0555
11082WAT      O45033   1.590   5.657   0.629  0.5303 -0.5243 -0.2529
11082WAT     H145034   1.633   5.732   0.619  3.1977 -1.7283  1.0085
11082WAT     H245035   1.610   5.613   0.556  0.5925 -0.6994 -0.1309
11082WAT    EPW45036   1.599   5.661   0.617  0.1353  0.2656 -0.7410
11083WAT      O45037   3.248   6.805   1.880 -0.0258 -0.3195  0.0776
11083WAT     H145038   3.239   6.889   1.899  2.0281  0.1920 -0.8808
11083WAT     H245039   3.221   6.764   1.952 -0.1786  1.1902  0.9062
11083WAT    EPW45040   3.243   6.811   1.893 -0.1402  0.4788 -0.7311
11084WAT      O45041   1.234   3.246   4.422 -0.5209 -0.0101  0.0884
11084WAT     H145042   1.199   3.312   4.466  0.1656  1.3259 -1.3006
11084WAT     H245043   1.254   3.280   4.344  1.6545 -1.2850 -0.0179
11084WAT    EPW45044   1.232   3.260   4.417 -0.4911 -0.4330 -0.2507
11085WAT      O45045   7.630   5.355   7.380  0.4850 -0.3259 -0.0728
11085WAT     H145046   7.550   5.354   7.415  0.7600 -0.5116  0.5772
11085WAT     H245047   7.617   5.384   7.299  0.0338  1.9645  0.7501
11085WAT    EPW45048   7.616   5.359   7.373  0.4724 -0.1373 -0.1243
11086WAT      O45049   2.124   5.087   5.850  0.5449  0.1961  0.0380
11086WAT     H145050   2.074   5.015   5.845  0.1452  0.5027 -0.3532
11086WAT     H245051   2.172   5.084   5.777  0.5409  0.3159  0.0302
11086WAT    EPW45052   2.124   5.076   5.839  0.3187  0.0741  0.6183
11087WAT      O45053   4.634   2.527   1.157  0.0963  0.2504  0.9830
11087WAT     H145054   4.611   2.553   1.076  0.3963  2.4829  1.5597
11087WAT     H245055   4.579   2.461   1.173 -0.5739  0.3422 -0.7099
11087WAT    EPW45056   4.622   2.521   1.147  0.5305 -0.1411  0.0373
11088WAT      O45057   2.925   0.287   6.864 -0.3652 -0.2115 -0.3161
11088WAT     H145058   2.948   0.226   6.922  1.5597 -0.0737 -0.8732
11088WAT     H245059   2.965   0.262   6.791 -0.1076  1.3557 -0.7396
11088WAT    EPW45060   2.934   0.274   6.862 -0.2907  0.1059  0.3350
11089WAT      O45061   6.620   2.416   6.136 -0.4569 -0.5989 -0.0194
11089WAT     H145062   6.617   2.471   6.204 -1.5298 -1.1683  0.4105
11089WAT     H245063   6.702   2.424   6.107 -0.1528  0.0854  0.9831
11089WAT    EPW45064   6.632   2.425   6.142 -0.0284 -0.2871 -0.4230
11090WAT      O45065   0.717   7.096   1.333 -0.2201 -0.0748 -0.2214
11090WAT     H145066   0.768   7.114   1.402  2.7156 -0.9334 -1.9579
11090WAT     H245067   0.729   7.165   1.280 -0.8353 -0.3251 -0.6957
11090WAT    EPW45068   0.726   7.109   1.335 -0.2037  0.0900 -0.1316
11091WAT      O45069   1.022   6.147   4.795  0.7861  0.0232  0.7697
11091WAT     H145070   1.099   6.124   4.829  0.2145  1.0671  2.9364
11091WAT     H245071   1.005   6.224   4.832 -1.6591 -0.5427  1.0110
11091WAT    EPW45072   1.031   6.155   4.806 -0.4115  0.1263  0.0610
11092WAT      O45073   4.682   0.147   6.526  0.4806 -0.2264 -0.5765
11092WAT     H145074   4.688   0.189   6.450  1.7286  0.0947 -0.3116
11092WAT     H245075   4.715   0.203   6.584  0.9180 -1.0375 -0.0180
11092WAT    EPW45076   4.687   0.162   6.523 -0.1981  0.1879 -0.4000
11093WAT      O45077   0.562   5.751   6.016  0.1491 -0.3645  0.3721
11093WAT     H145078   0.572   5.707   5.942  1.6906  1.6992 -0.7714
11093WAT     H245079   0.586   5.695   6.078  0.1786 -1.6841 -0.8061
11093WAT    EPW45080   0.567   5.736   6.014 -1.0183 -0.1461  0.4042
11094WAT      O45081   6.671   6.267   6.077  0.4366  0.0830  0.1450
11094WAT     H145082   6.735   6.323   6.058  0.6646 -0.4441 -0.6742
11094WAT     H245083   6.617   6.314   6.128  1.1527  0.7173  0.3351
11094WAT    EPW45084   6.672   6.283   6.082 -0.1946  0.0828 -0.0099
11095WAT      O45085   3.681   2.230   6.424  0.0076  0.8026 -0.4687
11095WAT     H145086   3.670   2.148   6.452  0.2464  1.3871  1.4328
11095WAT     H245087   3.624   2.236   6.357 -1.1614 -0.4326  0.3498
11095WAT    EPW45088   3.671   2.218   6.418 -0.0134  0.2125  0.1572
11096WAT      O45089   6.625   6.602   0.422 -0.2659  0.0178 -0.1056
11096WAT     H145090   6.572   6.661   0.384  0.1771  0.5165  0.0492
11096WAT     H245091   6.632   6.540   0.361 -2.5250 -0.9830  0.5576
11096WAT    EPW45092   6.618   6.601   0.407  0.5518  0.5368  0.3658
11097WAT      O45093   6.162   2.667   4.776 -0.6603  0.2220 -0.7371
11097WAT     H145094   6.161   2.717   4.847  0.7238  2.0530 -1.9178
11097WAT     H245095   6.140   2.722   4.712  1.2814 -0.5524 -2.1445
11097WAT    EPW45096   6.158   2.682   4.777  0.0610 -0.4960  0.6067
11098WAT      O45097   6.506   6.226   3.527 -0.2696 -0.3022  0.5943
11098WAT     H145098   6.576   6.271   3.502 -0.3525  0.5105  1.7524
11098WAT     H245099   6.533   6.185   3.599 -0.9495 -0.0257  1.0203
11098WAT    EPW45100   6.520   6.227   3.534  0.2802 -0.3737 -0.1605
11099WAT      O45101   2.663   6.261   5.487 -0.4048  0.6451 -0.5636
11099WAT     H145102   2.660   6.327   5.544  0.3946  0.5129 -0.3476
11099WAT     H245103   2.707   6.295   5.420 -0.6463  0.5616 -0.7606
11099WAT    EPW45104   2.669   6.276   5.486 -0.2486  0.0270  0.1902
11100WAT      O45105   2.249   4.440   2.784  0.2104  0.1003  0.1415
11100WAT     H145106   2.183   4.439   2.726  0.7362 -0.2058 -0.4724
11100WAT     H245107   2.219   4.390   2.849 -0.4349  0.5393  0.1944
11100WAT    EPW45108   2.235   4.432   2.785  0.1118 -0.3775  0.4171
11101WAT      O45109   0.291   1.353   1.001 -0.3947  0.1356 -0.0030
11101WAT     H145110   0.317   1.300   0.937 -0.9519 -1.2710  0.8878
11101WAT     H245111   0.353   1.341   1.062 -1.2933 -0.6465  0.7821
11101WAT    EPW45112   0.304   1.343   1.001 -0.2678 -0.5132  0.4579
11102WAT      O45113   1.578   2.085   3.371  0.2764  0.4552 -0.0547
11102WAT     H145114   1.551   2.087   3.454 -0.1954 -0.7292 -0.1593
11102WAT     H245115   1.631   2.154   3.365 -0.6082  1.2536  0.9027
11102WAT    EPW45116   1.582   2.096   3.383  0.0577  0.5763  0.0127
11103WAT      O45117   5.907   2.938   3.015 -0.3853 -0.1773 -0.2018
11103WAT     H145118   5.834   2.983   3.028 -0.4230  0.0177 -1.0429
11103WAT     H245119   5.965   2.976   3.068 -0.8378 -0.2103  0.3223
11103WAT    EPW45120   5.905   2.950   3.025 -0.1026  0.9125 -0.5777
11104WAT      O45121   5.984   4.732   0.637  0.5593 -0.4593  0.0365
11104WAT     H145122   5.929   4.795   0.663 -0.4307 -1.1165 -0.3877
11104WAT     H245123   5.991   4.680   0.707  0.1355 -0.7019 -0.0933
11104WAT    EPW45124   5.977   4.733   0.651  0.3488 -0.0373  0.5103
11105WAT      O45125   6.225   5.319   0.788 -0.2019 -0.6504  0.1563
11105WAT     H145126   6.157   5.263   0.788 -0.9363  0.2186 -0.1755
11105WAT     H245127   6.284   5.278   0.838 -0.9366 -1.4706  0.3941
11105WAT    EPW45128   6.224   5.304   0.796 -0.3510  0.5440  0.5968
11106WAT      O45129   2.152   4.915   5.144 -0.0543 -0.6543  0.1472
11106WAT     H145130   2.168   4.830   5.156 -2.5820 -1.1491  0.5682
11106WAT     H245131   2.218   4.954   5.187  0.0312 -2.4072  1.7296
11106WAT    EPW45132   2.164   4.908   5.152  0.4756 -0.4255  0.6023
11107WAT      O45133   4.987   4.669   6.137 -0.0597 -0.2230  0.0112
11107WAT     H145134   4.907   4.655   6.168 -0.2140  1.1208  0.2785
11107WAT     H245135   5.034   4.603   6.170 -0.7878 -0.3174  0.8998
11107WAT    EPW45136   4.982   4.657   6.146  0.2605 -0.0946  0.4315
11108WAT      O45137   7.109   0.656   1.007 -0.3353 -0.2339  0.0719
11108WAT     H145138   7.136   0.684   1.084  0.5879 -0.2949 -0.2226
11108WAT     H245139   7.078   0.576   1.023  1.2907 -0.8788  0.1259
11108WAT    EPW45140   7.108   0.648   1.020 -0.5530 -0.4494 -0.8559
11109WAT      O45141   2.715   5.415   1.453 -0.0920  0.5377 -0.6710
11109WAT     H145142   2.710   5.422   1.366  1.1694 -0.7686 -0.8707
11109WAT     H245143   2.641   5.374   1.475 -0.5564  1.1399 -1.0775
11109WAT    EPW45144   2.703   5.410   1.444  0.0326 -0.0265  0.1959
11110WAT      O45145   4.955   2.762   2.157 -0.0551 -0.6022 -0.2877
11110WAT     H145146   4.958   2.788   2.240 -0.5762  0.3749 -0.5693
11110WAT     H245147   4.872   2.741   2.145 -0.2325  0.4059 -0.9009
11110WAT    EPW45148   4.943   2.762   2.168 -0.6939 -0.3398  0.3919
11111WAT      O45149   3.678   3.042   0.143  0.1805 -0.2384 -0.0175
11111WAT     H145150   3.744   3.081   0.185 -0.5400  0.3950  0.5565
11111WAT     H245151   3.629   3.009   0.207 -0.9019  0.6896 -0.3199
11111WAT    EPW45152   3.681   3.043   0.159  0.2221 -0.0578  1.3593
11112WAT      O45153   4.402   4.722   5.569  0.6195  0.0997 -0.4087
11112WAT     H145154   4.432   4.756   5.644 -1.2063  1.1925 -0.1035
11112WAT     H245155   4.343   4.781   5.542 -1.3601 -1.9400 -0.8310
11112WAT    EPW45156   4.398   4.736   5.576 -0.2409  0.2039 -0.0401
11113WAT      O45157   2.649   1.070   4.889 -0.2274 -0.8375  0.3320
11113WAT     H145158   2.618   1.095   4.967 -0.4592  0.3513 -0.1125
11113WAT     H245159   2.685   1.143   4.857 -4.0826  0.1214 -2.6077
11113WAT    EPW45160   2.650   1.085   4.896  0.6155  0.0008  0.0050
11114WAT      O45161   2.873   2.575   0.274  0.2387  0.6442 -0.1180
11114WAT     H145162   2.833   2.644   0.239  1.2754  0.2746 -2.1640
11114WAT     H245163   2.948   2.570   0.230  0.5040 -1.3715  0.4593
11114WAT    EPW45164   2.878   2.584   0.262 -0.2277  0.0345  0.0883
11115WAT      O45165   1.258   3.266   6.023  0.0369 -0.4735 -0.1757
11115WAT     H145166   1.325   3.209   6.024 -1.1704 -1.9840  1.2032
11115WAT     H245167   1.197   3.225   6.070 -2.4010  0.2015 -2.5176
11115WAT    EPW45168   1.259   3.251   6.030  0.0838  0.2256 -0.5865
11116WAT      O45169   1.371   0.983   6.051  0.3920 -0.0564 -0.2358
11116WAT     H145170   1.446   0.941   6.038 -0.0230 -1.5744  1.8242
11116WAT     H245171   1.314   0.920   6.068 -1.0818  1.1448 -0.4723
11116WAT    EPW45172   1.373   0.968   6.052 -0.1649 -0.4602 -0.5349
11117WAT      O45173   0.181   4.866   1.019 -0.1389  0.2549 -0.8218
11117WAT     H145174   0.221   4.928   1.065 -0.7022 -1.2660  1.9572
11117WAT     H245175   0.096   4.888   1.024 -0.4914 -1.2148  1.2583
11117WAT    EPW45176   0.174   4.878   1.027  0.0511 -0.0076  0.7359
11118WAT      O45177   3.119   3.034   5.239 -0.6883 -0.0730 -0.7053
11118WAT     H145178   3.157   3.056   5.314 -0.7036 -0.7045 -0.5126
11118WAT     H245179   3.118   3.109   5.194  0.9665 -0.0842 -0.7978
11118WAT    EPW45180   3.124   3.049   5.243  0.3259 -0.2752  0.6069
11119WAT      O45181   6.402   3.577   0.344  0.0913 -0.1683 -0.1384
11119WAT     H145182   6.380   3.643   0.396 -1.2081 -0.2577 -0.5583
11119WAT     H245183   6.453   3.615   0.284  2.0135 -0.1407  1.3783
11119WAT    EPW45184   6.406   3.592   0.343 -0.8190 -0.4540 -0.1582
11120WAT      O45185   2.772   5.471   4.078 -0.0199  0.1511  0.4755
11120WAT     H145186   2.771   5.520   4.151 -0.3034  2.3204 -0.8991
11120WAT     H245187   2.697   5.426   4.083  0.2733 -0.2334  1.8050
11120WAT    EPW45188   2.761   5.472   4.090  0.1861 -0.2552 -0.0786
11121WAT      O45189   5.129   2.312   0.341 -0.1184  0.1312  0.4761
11121WAT     H145190   5.052   2.276   0.320 -0.3262 -0.2420  1.7916
11121WAT     H245191   5.184   2.244   0.342  0.0502  0.2657  0.3917
11121WAT    EPW45192   5.126   2.296   0.338  0.4006 -0.0082 -0.0796
11122WAT      O45193   3.370   1.249   1.895  0.1471  0.5801 -0.1814
11122WAT     H145194   3.413   1.272   1.968  0.7446 -1.3199  0.1049
11122WAT     H245195   3.292   1.288   1.904  0.6570  1.4123  0.8441
11122WAT    EPW45196   3.365   1.258   1.907  0.0242  0.2337  0.4995
11123WAT      O45197   1.438   4.940   4.400 -0.6556 -0.1569  0.1562
11123WAT     H145198   1.432   4.980   4.477 -0.4821  0.1166  0.0279
11123WAT     H245199   1.444   4.855   4.421 -1.6612 -0.1850  0.4055
11123WAT    EPW45200   1.438   4.933   4.414  0.2171  0.2904 -0.1198
11124WAT      O45201   3.801   2.883   0.399  0.5835  0.1180  0.4521
11124WAT     H145202   3.844   2.866   0.325  0.5598 -0.3346  0.5379
11124WAT     H245203   3.858   2.930   0.446  0.6547  0.2738  0.2110
11124WAT    EPW45204   3.816   2.888   0.395 -0.0892  0.6834  0.4322
11125WAT      O45205   4.064   2.131   7.573  0.2005  0.2674 -0.1471
11125WAT     H145206   4.115   2.064   7.549 -0.5108 -0.2328 -0.3006
11125WAT     H245207   4.037   2.165   7.497  0.6413  0.7989 -0.0712
11125WAT    EPW45208   4.068   2.126   7.558 -0.2505 -0.0375  0.2874
11126WAT      O45209   3.876   1.479   6.740 -0.0165  0.1492  0.0959
11126WAT     H145210   3.802   1.458   6.698 -0.3078 -1.1767  1.1766
11126WAT     H245211   3.931   1.501   6.676 -1.8541  3.1081 -0.6477
11126WAT    EPW45212   3.873   1.479   6.725  0.1830 -0.7341  0.0596
11127WAT      O45213   0.418   3.283   6.309 -1.0236  0.0934  0.3198
11127WAT     H145214   0.365   3.224   6.271 -2.5616  1.4334  0.2901
11127WAT     H245215   0.482   3.292   6.251 -2.2139  0.4731 -1.0165
11127WAT    EPW45216   0.419   3.276   6.295  0.4873 -0.0455  0.5367
11128WAT      O45217   4.084   3.628   0.454 -0.3884 -0.3237 -0.4813
11128WAT     H145218   4.124   3.700   0.482  0.3809 -1.0491  0.3451
11128WAT     H245219   4.028   3.610   0.518 -0.2420 -0.7107 -0.4594
11128WAT    EPW45220   4.082   3.636   0.467 -0.0764  0.5830  0.3151
11129WAT      O45221   5.433   7.373   6.698 -0.8437  0.0760  0.5204
11129WAT     H145222   5.386   7.350   6.628 -1.0538 -0.1061  0.7210
11129WAT     H245223   5.382   7.430   6.739 -1.0967 -0.4664  0.9839
11129WAT    EPW45224   5.419   7.378   6.694  0.1562 -0.2226 -0.1800
11130WAT      O45225   0.429   6.281   4.067  1.2386 -0.2121  0.3487
11130WAT     H145226   0.417   6.254   3.984  1.3165  1.0160 -0.0759
11130WAT     H245227   0.399   6.214   4.114 -0.9387 -0.0605 -0.6690
11130WAT    EPW45228   0.423   6.267   4.061 -0.3443  0.3385  0.0933
11131WAT      O45229   7.385   1.183   1.414 -0.0366  0.3594 -0.0176
11131WAT     H145230   7.422   1.239   1.359  1.9348  0.4469  1.3171
11131WAT     H245231   7.449   1.127   1.434 -0.7612  0.1073  1.8682
11131WAT    EPW45232   7.400   1.183   1.409  0.5027  0.4916  0.3187
11132WAT      O45233   2.362   0.955   2.091  0.3168  0.0707  0.0739
11132WAT     H145234   2.299   1.000   2.049  0.8624  2.0154  1.2030
11132WAT     H245235   2.395   0.904   2.029 -1.0901  0.4168 -1.0258
11132WAT    EPW45236   2.358   0.954   2.076 -0.3863  0.0737 -0.1199
11133WAT      O45237   0.519   1.223   2.297 -0.5770 -0.4002  0.3610
11133WAT     H145238   0.522   1.178   2.222 -0.5108 -0.6201  0.4944
11133WAT     H245239   0.594   1.266   2.299 -0.0890 -1.2522  0.8293
11133WAT    EPW45240   0.530   1.222   2.286  0.4064  0.4411  0.4792
11134WAT      O45241   7.360   3.647   4.124  0.1839 -0.4397  0.5766
11134WAT     H145242   7.446   3.642   4.110  0.3684  0.6783  1.2341
11134WAT     H245243   7.346   3.731   4.139 -0.9478 -0.6843  1.0256
11134WAT    EPW45244   7.371   3.658   4.124  0.3791 -0.1264  0.0700
11135WAT      O45245   0.473   2.702   6.519 -0.2278 -0.4251 -0.4720
11135WAT     H145246   0.401   2.749   6.504 -0.7164 -1.2976 -0.9397
11135WAT     H245247   0.535   2.748   6.479 -0.3872  0.6798  0.4861
11135WAT    EPW45248   0.471   2.716   6.511  0.2932 -0.2170 -0.2888
11136WAT      O45249   2.418   0.767   2.779 -0.0733 -0.1290 -0.1089
11136WAT     H145250   2.496   0.740   2.752  0.0820  0.6828 -0.5057
11136WAT     H245251   2.391   0.819   2.715  0.2258  1.6951  1.1390
11136WAT    EPW45252   2.426   0.771   2.766 -0.6694 -0.1684  0.0841
11137WAT      O45253   6.940   6.907   1.728 -0.1076  0.4057  0.0381
11137WAT     H145254   7.011   6.943   1.692  1.0958 -1.8904 -0.0731
11137WAT     H245255   6.939   6.940   1.808  1.4495  0.1079  0.2292
11137WAT    EPW45256   6.951   6.917   1.735  0.0283  0.1048 -0.6445
11138WAT      O45257   1.998   6.681   3.005 -0.5538 -0.2862 -0.4967
11138WAT     H145258   1.913   6.700   3.004 -0.5959 -0.3161  0.7054
11138WAT     H245259   2.036   6.756   2.982 -0.8748 -0.0256 -0.1786
11138WAT    EPW45260   1.991   6.695   3.001 -0.6686  0.1176 -0.4284
11139WAT      O45261   6.511   4.591   6.242 -0.3309  0.1282 -0.6481
11139WAT     H145262   6.476   4.518   6.208 -1.8948  0.2973  0.4782
11139WAT     H245263   6.549   4.563   6.315  0.8298  0.1598 -1.2145
11139WAT    EPW45264   6.511   4.576   6.248 -0.1608 -0.6626  0.3018
11140WAT      O45265   6.121   1.161   4.040  0.4903 -0.4657  0.5547
11140WAT     H145266   6.048   1.125   4.071  0.0609 -0.0393  0.0690
11140WAT     H245267   6.146   1.107   3.976 -0.9295  0.7430 -1.1304
11140WAT    EPW45268   6.114   1.148   4.035 -0.0899  0.4853  0.3121
11141WAT      O45269   0.425   3.188   2.369 -0.2263 -0.5815 -0.0727
11141WAT     H145270   0.458   3.107   2.363 -0.0352 -0.3992 -2.0151
11141WAT     H245271   0.354   3.184   2.318 -0.6548  0.2808  0.4424
11141WAT    EPW45272   0.419   3.175   2.360 -0.2843 -0.0292  0.0514
11142WAT      O45273   6.076   6.064   4.508 -0.0590 -0.0203  0.7064
11142WAT     H145274   5.998   6.056   4.548  0.3686 -1.5723  1.3236
11142WAT     H245275   6.071   6.008   4.441 -1.3436  3.6576 -2.6174
11142WAT    EPW45276   6.064   6.054   4.504  0.0644 -0.2045 -0.3600
11143WAT      O45277   6.856   7.370   3.658  0.4588 -0.0005 -0.7074
11143WAT     H145278   6.912   7.387   3.722  0.1332  0.5425 -0.5630
11143WAT     H245279   6.869   7.285   3.641  1.1292  0.0560 -0.4938
11143WAT    EPW45280   6.866   7.360   3.665  0.2990 -0.3101 -0.0150
11144WAT      O45281   2.283   5.063   4.527  0.5521 -0.0090  0.1636
11144WAT     H145282   2.319   5.141   4.543  0.0013  0.2182  0.3102
11144WAT     H245283   2.214   5.082   4.478 -0.3119 -0.2724  1.2444
11144WAT    EPW45284   2.278   5.078   4.522 -0.3783  0.1053  0.0618
11145WAT      O45285   5.488   1.428   4.438  0.0684  0.4988 -0.1225
11145WAT     H145286   5.548   1.460   4.384  0.1577 -0.5645 -0.6848
11145WAT     H245287   5.454   1.499   4.475  1.7751  1.1222  0.3325
11145WAT    EPW45288   5.491   1.443   4.435 -0.5478  0.0624 -0.3621
11146WAT      O45289   2.601   7.016   0.676 -0.7321 -0.6973  0.3085
11146WAT     H145290   2.589   6.992   0.593 -0.1640  0.6557 -0.1940
11146WAT     H245291   2.579   6.944   0.721  0.8837 -2.1895 -1.0872
11146WAT    EPW45292   2.596   7.002   0.670 -0.8041  1.0158  0.2017
11147WAT      O45293   3.785   4.397   0.865 -0.3655  0.6492 -0.1337
11147WAT     H145294   3.837   4.353   0.810  0.7930  2.4008 -0.5172
11147WAT     H245295   3.751   4.334   0.915  0.1897 -0.7915 -1.4772
11147WAT    EPW45296   3.788   4.381   0.864  0.3884  0.2740 -0.5118
11148WAT      O45297   3.144   5.806   7.499 -0.3930 -0.4202  0.2625
11148WAT     H145298   3.214   5.813   7.448 -0.2634  0.0364  0.5009
11148WAT     H245299   3.143   5.881   7.544 -1.5491 -0.0063 -0.3922
11148WAT    EPW45300   3.154   5.818   7.498  0.3737 -0.2669 -0.1759
11149WAT      O45301   6.700   4.743   2.099 -0.8573  0.1829 -0.2443
11149WAT     H145302   6.679   4.711   2.021 -1.4072 -0.2223  0.0605
11149WAT     H245303   6.688   4.676   2.153  1.2666 -0.0792 -0.0268
11149WAT    EPW45304   6.695   4.728   2.095  0.6977  0.1757 -0.3189
11150WAT      O45305   0.094   1.236   6.005  0.1097  0.3948 -0.2380
11150WAT     H145306   0.140   1.184   6.057 -0.8100 -0.7557 -0.5267
11150WAT     H245307   0.150   1.257   5.942 -0.0543 -2.0359 -1.2960
11150WAT    EPW45308   0.109   1.231   6.003 -0.6410  0.0303  0.5626
11151WAT      O45309   4.910   3.520   0.515  0.5345  0.5659 -0.3206
11151WAT     H145310   4.860   3.456   0.546 -0.4524  1.8983  1.0001
11151WAT     H245311   4.983   3.480   0.490 -0.3888 -1.1642 -0.3432
11151WAT    EPW45312   4.913   3.505   0.516 -0.0924  0.3271  0.2140
11152WAT      O45313   6.652   0.127   2.231  0.4039  0.0194  0.3589
11152WAT     H145314   6.590   0.186   2.215  1.1505  0.4110 -1.2653
11152WAT     H245315   6.618   0.053   2.200 -0.2253 -0.3012  1.7223
11152WAT    EPW45316   6.638   0.125   2.224  0.0984 -0.4558 -0.0610
11153WAT      O45317   7.284   4.043   2.184 -0.3259  0.4520 -0.6789
11153WAT     H145318   7.306   4.101   2.245  1.5609  0.9991 -1.7835
11153WAT     H245319   7.337   4.063   2.118 -0.9790 -1.3241 -1.7919
11153WAT    EPW45320   7.295   4.055   2.183 -0.1827  0.1624 -0.3538
11154WAT      O45321   2.987   6.858   3.013 -0.0868 -0.2298 -0.7397
11154WAT     H145322   3.055   6.872   3.066  0.2154  2.8220 -1.7541
11154WAT     H245323   2.925   6.910   3.044 -1.1173 -1.0387 -1.3670
11154WAT    EPW45324   2.988   6.868   3.026  0.5852  0.2986  0.1133
11155WAT      O45325   3.713   1.438   1.066 -0.2040  0.1998 -0.0800
11155WAT     H145326   3.718   1.457   1.151 -0.5230  0.1802 -0.0579
11155WAT     H245327   3.781   1.482   1.031  0.8451 -0.9915  0.3967
11155WAT    EPW45328   3.724   1.447   1.073 -0.4126  0.4984 -0.4262
11156WAT      O45329   1.824   3.786   3.057 -0.1168  0.4863 -0.0668
11156WAT     H145330   1.896   3.800   3.009 -0.0672  0.3639 -0.0273
11156WAT     H245331   1.855   3.755   3.133 -0.3130 -3.3994 -1.3285
11156WAT    EPW45332   1.839   3.783   3.061  0.5116  0.3012  0.0149
11157WAT      O45333   5.040   2.365   7.232 -0.3176  0.2927  0.1498
11157WAT     H145334   5.072   2.445   7.216  1.4984 -0.4475 -0.2216
11157WAT     H245335   5.045   2.358   7.318 -1.6308  0.9977  0.3052
11157WAT    EPW45336   5.046   2.376   7.242 -0.2799  0.0136 -0.2797
11158WAT      O45337   7.584   6.917   5.438 -0.2490  0.5647  0.1259
11158WAT     H145338   7.502   6.900   5.463  0.1814 -2.5644 -0.2019
11158WAT     H245339   7.619   6.954   5.509 -1.3977  0.0158  1.0310
11158WAT    EPW45340   7.577   6.920   5.452 -0.4904  0.2578 -0.2377
11159WAT      O45341   2.383   2.847   1.260 -0.5175 -0.9421  0.7370
11159WAT     H145342   2.316   2.851   1.316 -0.9330 -2.0615  0.3391
11159WAT     H245343   2.451   2.871   1.309 -0.7846 -2.3649  1.8756
11159WAT    EPW45344   2.383   2.851   1.275  0.0090 -0.1470  0.2149
11160WAT      O45345   6.041   0.636   4.462 -0.1511  0.1660  0.5918
11160WAT     H145346   5.959   0.666   4.467  0.3469  1.5568  0.6157
11160WAT     H245347   6.057   0.636   4.377 -0.0605  0.1787  0.6096
11160WAT    EPW45348   6.031   0.640   4.450  0.1212  0.2127  0.1011
11161WAT      O45349   4.499   7.551   6.435 -0.1308  0.1729  0.5576
11161WAT     H145350   4.550   7.490   6.399  0.1258  0.5803  0.2180
11161WAT     H245351   4.555   7.605   6.474 -0.3463  0.2729  0.7363
11161WAT    EPW45352   4.515   7.550   6.435 -0.1012  0.3805  0.5677
11162WAT      O45353   5.897   5.929   1.911  0.5514  0.1362  0.6994
11162WAT     H145354   5.980   5.919   1.887  0.2071  0.3190 -0.6669
11162WAT     H245355   5.858   5.956   1.838 -0.6606  0.3085  1.3862
11162WAT    EPW45356   5.903   5.931   1.897 -0.4232  0.2443 -0.1576
11163WAT      O45357   6.932   2.668   0.205  0.1311 -0.3126 -0.2075
11163WAT     H145358   6.974   2.607   0.250 -1.0264 -0.4860  0.7024
11163WAT     H245359   6.952   2.742   0.247 -0.0558 -0.3332 -0.0782
11163WAT    EPW45360   6.941   2.670   0.218  0.5572 -0.1947  0.5535
11164WAT      O45361   2.179   4.843   4.736  0.3073  0.4087  0.1731
11164WAT     H145362   2.121   4.847   4.671  1.7799 -2.2555 -1.4834
11164WAT     H245363   2.131   4.818   4.805 -0.6491 -1.7028 -1.1384
11164WAT    EPW45364   2.163   4.840   4.737 -0.1347  0.4721  0.2899
11165WAT      O45365   6.404   1.212   0.252  0.0473  0.5068  0.0878
11165WAT     H145366   6.369   1.253   0.320  0.6009  0.3867  0.4536
11165WAT     H245367   6.409   1.274   0.191 -2.0541  0.2080 -0.4665
11165WAT    EPW45368   6.400   1.227   0.253  0.6651 -0.7318  0.1225
11166WAT      O45369   2.171   3.209   3.965 -0.2374 -0.3403  0.0312
11166WAT     H145370   2.122   3.279   3.949  0.8536  0.3275 -0.5600
11166WAT     H245371   2.211   3.228   4.040 -1.2489 -1.1119  0.7922
11166WAT    EPW45372   2.170   3.222   3.974  0.6727 -0.1550 -0.0456
11167WAT      O45373   2.716   4.167   1.148  0.3947  0.1434 -0.5191
11167WAT     H145374   2.790   4.160   1.193  0.5372  0.4547 -0.7043
11167WAT     H245375   2.739   4.210   1.076 -0.1266  1.0086 -0.1892
11167WAT    EPW45376   2.730   4.172   1.144 -0.3725 -0.3729 -0.0258
11168WAT      O45377   2.933   1.739   0.954 -0.0442 -0.8977 -0.2371
11168WAT     H145378   2.930   1.753   0.868  1.9405  0.9061 -0.0801
11168WAT     H245379   2.850   1.749   0.979 -0.5106 -0.5572 -1.7988
11168WAT    EPW45380   2.920   1.742   0.945  0.1503  0.0323  0.4015
11169WAT      O45381   7.197   3.022   6.361  0.3211 -0.4042  0.6432
11169WAT     H145382   7.284   3.025   6.369  0.2495 -1.5112  2.2867
11169WAT     H245383   7.183   3.059   6.283  2.1564  0.8364  0.8236
11169WAT    EPW45384   7.208   3.028   6.350 -0.0316 -0.6806 -0.5505
11170WAT      O45385   4.691   4.332   4.803  0.6751  0.0653  1.0678
11170WAT     H145386   4.727   4.268   4.756  1.1463  1.3811 -0.4620
11170WAT     H245387   4.606   4.329   4.781  0.9188  0.7704 -0.0481
11170WAT    EPW45388   4.684   4.322   4.793  0.5159 -0.0375  0.3754
11171WAT      O45389   6.233   0.172   1.242  0.4065 -0.5203  0.1954
11171WAT     H145390   6.294   0.155   1.182  0.1404 -2.7877  0.4465
11171WAT     H245391   6.189   0.240   1.210  0.5475 -1.3780 -1.9745
11171WAT    EPW45392   6.236   0.179   1.229 -0.3515 -0.2260  0.0746
11172WAT      O45393   6.485   2.844   4.819  0.1569  0.4102  0.5863
11172WAT     H145394   6.567   2.822   4.800  0.0786  1.5571 -1.4276
11172WAT     H245395   6.494   2.923   4.855 -0.0262  0.2446  0.9969
11172WAT    EPW45396   6.499   2.853   4.821  0.2784  0.0482  0.0026
11173WAT      O45397   2.902   7.571   2.994 -0.5236 -0.3518  0.0051
11173WAT     H145398   2.840   7.529   2.949 -0.4093 -0.2220 -0.2787
11173WAT     H245399   2.976   7.546   2.955 -0.3112 -1.2476  0.9385
11173WAT    EPW45400   2.904   7.561   2.982  0.3219 -0.1813 -0.4311
11174WAT      O45401   6.735   2.360   0.098  0.0962 -0.1234  0.1309
11174WAT     H145402   6.707   2.409   0.164 -1.7468 -0.8281 -0.0364
11174WAT     H245403   6.677   2.294   0.097  1.4150 -1.3240 -0.7664
11174WAT    EPW45404   6.722   2.357   0.108  0.0487 -0.9632 -0.6066
11175WAT      O45405   0.947   6.339   2.021 -0.0354 -0.1254  0.7896
11175WAT     H145406   0.863   6.320   2.007 -0.3164  2.4080 -2.0578
11175WAT     H245407   0.945   6.387   2.094 -1.0078 -0.4112  0.9680
11175WAT    EPW45408   0.934   6.343   2.029 -0.7783  0.0138  0.2453
11176WAT      O45409   3.693   2.151   0.149  0.1737  0.1728  0.0219
11176WAT     H145410   3.764   2.104   0.166  0.3665  1.3654  3.1077
11176WAT     H245411   3.714   2.232   0.174 -2.3321  0.5083  1.4428
11176WAT    EPW45412   3.706   2.156   0.155 -0.2936 -0.8293  0.6118
11177WAT      O45413   5.270   1.976   2.001 -0.4503  0.0303  0.5527
11177WAT     H145414   5.219   1.993   2.070 -0.8444 -0.1870  0.3176
11177WAT     H245415   5.255   1.892   1.985 -1.0704  0.3048 -0.3725
11177WAT    EPW45416   5.260   1.966   2.009 -0.4484 -0.7055 -0.3266
11178WAT      O45417   2.776   4.178   4.249  0.2885 -0.3897 -0.3002
11178WAT     H145418   2.762   4.118   4.311  0.6915  1.4509  1.6882
11178WAT     H245419   2.860   4.199   4.260 -0.1757  1.4541 -0.0438
11178WAT    EPW45420   2.787   4.172   4.260 -0.1788  0.1674  0.2811
11179WAT      O45421   2.056   5.139   1.490 -0.1693  0.0767 -0.2735
11179WAT     H145422   2.076   5.064   1.530 -0.2646 -0.0324 -0.4259
11179WAT     H245423   2.092   5.129   1.411 -0.4466  0.0638 -0.3987
11179WAT    EPW45424   2.064   5.126   1.484 -0.0078  0.4492 -0.1068
11180WAT      O45425   3.193   5.430   2.375 -0.6486  0.4586 -0.0615
11180WAT     H145426   3.230   5.404   2.301  0.8686  0.0449  0.7948
11180WAT     H245427   3.141   5.495   2.350  0.3679  0.7994 -1.4033
11180WAT    EPW45428   3.191   5.436   2.361  0.0757  0.9190 -0.3312
11181WAT      O45429   1.476   5.898   4.013 -0.5560  0.4140 -0.4100
11181WAT     H145430   1.491   5.949   3.944 -0.0721  0.3172 -0.3756
11181WAT     H245431   1.526   5.933   4.076  0.4247 -0.5904 -0.6082
11181WAT    EPW45432   1.485   5.911   4.012 -0.4006 -0.7030  0.9256
11182WAT      O45433   1.705   1.999   6.831 -0.1850  0.0998 -0.3770
11182WAT     H145434   1.733   2.028   6.753 -1.0610 -0.0958 -0.7771
11182WAT     H245435   1.627   2.037   6.840 -0.4012 -0.4405  0.0805
11182WAT    EPW45436   1.697   2.009   6.821 -0.4433 -0.3827 -0.3334
11183WAT      O45437   0.846   0.071   0.273 -0.0881  0.2100  0.2160
11183WAT     H145438   0.931   0.059   0.286 -0.2292  0.4997  1.4799
11183WAT     H245439   0.843   0.139   0.219  0.4610  1.2930  1.5098
11183WAT    EPW45440   0.858   0.079   0.267  0.5998 -0.5316  0.2922
11184WAT      O45441   5.439   6.708   6.935 -0.0040 -0.3817 -0.0389
11184WAT     H145442   5.413   6.742   7.011 -0.0340 -1.4780  0.4481
11184WAT     H245443   5.526   6.718   6.937 -0.0152 -0.3164  0.0922
11184WAT    EPW45444   5.448   6.715   6.946  0.8518  0.2800  0.2011
11185WAT      O45445   5.469   6.749   5.263 -0.0650  0.3284  0.2298
11185WAT     H145446   5.556   6.754   5.268 -0.1139  1.5505  0.3847
11185WAT     H245447   5.442   6.821   5.304 -1.2356 -1.0672  2.0652
11185WAT    EPW45448   5.478   6.761   5.270  0.1970 -0.1663 -0.2082
11186WAT      O45449   2.574   6.838   0.883 -0.0367 -0.2626 -0.7170
11186WAT     H145450   2.651   6.812   0.916  1.2693 -0.3938 -3.5162
11186WAT     H245451   2.522   6.769   0.894 -0.5923  0.5448  3.1687
11186WAT    EPW45452   2.578   6.824   0.889  0.1525 -0.5796 -0.0021
11187WAT      O45453   5.763   7.023   5.746  0.0532  0.1862 -0.1284
11187WAT     H145454   5.839   7.065   5.735 -0.1853  0.4562 -0.8661
11187WAT     H245455   5.737   7.048   5.825  0.0466  1.2294 -0.4443
11187WAT    EPW45456   5.771   7.033   5.756  0.0617 -0.1326 -0.2686
11188WAT      O45457   4.187   6.010   3.086 -0.3732 -0.0158 -0.1058
11188WAT     H145458   4.220   5.947   3.136 -0.4890  0.8439  1.0970
11188WAT     H245459   4.103   6.014   3.111 -0.7670 -0.4317 -1.2884
11188WAT    EPW45460   4.179   6.002   3.097 -0.5337  0.4703  0.0583
11189WAT      O45461   2.303   0.858   3.717 -0.1385  0.4059  0.1812
11189WAT     H145462   2.219   0.838   3.728  0.1049 -0.5425  0.4041
11189WAT     H245463   2.308   0.881   3.632 -0.6503  0.6916  0.2243
11189WAT    EPW45464   2.292   0.859   3.706 -0.2583 -0.1252 -0.2439
11190WAT      O45465   0.102   3.664   3.266 -0.2739  0.4227  0.5473
11190WAT     H145466   0.097   3.589   3.309 -0.6508  0.7595  1.1185
11190WAT     H245467   0.181   3.695   3.287 -0.1388  0.2122  0.3515
11190WAT    EPW45468   0.113   3.658   3.275  0.0815 -0.0305 -0.5281
11191WAT      O45469   5.722   0.545   0.197  0.3177  0.8302  0.2596
11191WAT     H145470   5.693   0.625   0.217 -0.4164  0.5486  0.3620
11191WAT     H245471   5.719   0.543   0.109  1.3890  1.2850  0.1975
11191WAT    EPW45472   5.717   0.556   0.187  0.3382 -0.4576  0.2159
11192WAT      O45473   7.094   6.979   0.336 -0.3301 -0.5946  0.3196
11192WAT     H145474   7.008   6.982   0.355 -0.6345 -2.2282 -0.6219
11192WAT     H245475   7.108   6.895   0.319  0.8919  0.0141 -2.1285
11192WAT    EPW45476   7.083   6.967   0.336  0.6673 -0.0252  0.2249
11193WAT      O45477   2.544   2.972   5.416 -0.0802  0.3055 -0.1099
11193WAT     H145478   2.631   2.979   5.421 -0.2018  0.9584  1.5602
11193WAT     H245479   2.532   2.912   5.354  1.6804 -2.5325  2.0402
11193WAT    EPW45480   2.555   2.965   5.407 -0.2847 -0.4919 -0.9409
11194WAT      O45481   1.951   2.981   0.177 -0.0717 -0.4392  0.1217
11194WAT     H145482   1.975   3.011   0.099  1.1769 -0.1856  0.5798
11194WAT     H245483   1.943   3.053   0.225 -1.1845 -0.5676  0.1583
11194WAT    EPW45484   1.953   2.996   0.173 -0.3111 -0.1455  0.0859
11195WAT      O45485   5.559   2.694   5.811  0.3291  0.0701  0.2557
11195WAT     H145486   5.579   2.761   5.863 -2.0357  0.3131  0.9887
11195WAT     H245487   5.566   2.727   5.731  0.3915  0.8266  0.5640
11195WAT    EPW45488   5.563   2.709   5.807 -0.2278  0.0092 -0.6170
11196WAT      O45489   3.841   5.545   6.467  0.0527  0.0751 -0.2658
11196WAT     H145490   3.800   5.573   6.396 -1.7173  0.6445  0.9138
11196WAT     H245491   3.808   5.465   6.480 -0.4402  0.3892  0.4852
11196WAT    EPW45492   3.830   5.537   6.458  0.4364 -0.0705 -0.1624
11197WAT      O45493   2.270   5.290   2.450 -0.1875 -0.3977  0.1316
11197WAT     H145494   2.238   5.365   2.417 -1.2198 -0.6309  0.5737
11197WAT     H245495   2.215   5.230   2.421  0.3069 -0.9278  0.2671
11197WAT    EPW45496   2.257   5.293   2.441 -0.0458 -0.1897  0.4326
11198WAT      O45497   1.237   6.099   3.715  0.0333  0.2221  0.0178
11198WAT     H145498   1.193   6.140   3.650 -0.9477  1.9602  1.6713
11198WAT     H245499   1.184   6.033   3.736  0.1928 -0.1465 -0.6939
11198WAT    EPW45500   1.223   6.095   3.708  0.0125  0.4391 -0.7357
11199WAT      O45501   4.039   0.922   3.054  0.3900 -0.3172 -0.0047
11199WAT     H145502   4.078   0.844   3.060 -0.2929 -0.6002  1.3296
11199WAT     H245503   3.955   0.902   3.043  0.4814  0.2816 -2.1941
11199WAT    EPW45504   4.032   0.907   3.054  0.1676  0.7240  0.3006
11200WAT      O45505   2.460   1.890   2.101 -0.5408 -0.1796  0.7977
11200WAT     H145506   2.449   1.860   2.182  0.7427  0.4401  1.2325
11200WAT     H245507   2.470   1.976   2.112 -5.2386  0.8408 -0.4909
11200WAT    EPW45508   2.460   1.898   2.114 -0.1268 -0.5832 -0.5492
11201WAT      O45509   6.430   4.139   7.606  0.8665  0.2576 -0.0238
11201WAT     H145510   6.347   4.155   7.628  0.7994 -0.5544  0.3718
11201WAT     H245511   6.436   4.167   7.524  0.0918 -0.0061 -0.1777
11201WAT    EPW45512   6.419   4.145   7.597 -0.3430 -0.0961  0.7240
11202WAT      O45513   4.591   5.627   5.899 -0.4229  0.4119 -0.2318
11202WAT     H145514   4.540   5.621   5.970 -0.5084  1.1148 -0.2236
11202WAT     H245515   4.609   5.712   5.895  2.0800 -0.0062  0.6833
11202WAT    EPW45516   4.586   5.639   5.909  0.1565 -0.5236 -1.0158
11203WAT      O45517   1.793   4.742   4.635 -0.0527 -0.1109 -0.3513
11203WAT     H145518   1.730   4.696   4.596  1.7079 -1.9356 -1.2160
11203WAT     H245519   1.855   4.749   4.574  1.1502  0.4415  0.8738
11203WAT    EPW45520   1.793   4.736   4.621 -0.4455  0.0056  0.2543
11204WAT      O45521   4.709   6.115   2.307  0.0749  0.3805 -0.1952
11204WAT     H145522   4.718   6.029   2.301  2.3405  0.5227  0.1878
11204WAT     H245523   4.677   6.138   2.230 -0.6572 -0.7919 -0.2655
11204WAT    EPW45524   4.706   6.106   2.295 -0.3390  0.1504  0.1084
11205WAT      O45525   7.308   4.481   7.419 -0.1879  0.5282  0.7206
11205WAT     H145526   7.381   4.505   7.460  0.5042  0.5406 -0.4579
11205WAT     H245527   7.332   4.411   7.373 -1.2194 -0.1439  1.1671
11205WAT    EPW45528   7.322   4.474   7.418  0.0009  0.3054 -0.1216
11206WAT      O45529   2.003   5.261   0.894  0.1334 -0.0415  0.4965
11206WAT     H145530   1.981   5.332   0.848  1.4823  0.4262  0.4983
11206WAT     H245531   1.963   5.196   0.853  0.7514  0.4488 -0.9628
11206WAT    EPW45532   1.994   5.262   0.881 -0.3470  0.7317  0.3813
11207WAT      O45533   4.464   6.694   3.315 -0.5545 -0.0511  0.4324
11207WAT     H145534   4.472   6.681   3.229  2.3202  0.5913  0.5192
11207WAT     H245535   4.454   6.780   3.322 -1.3846 -0.1629  0.7386
11207WAT    EPW45536   4.463   6.705   3.303 -0.2909 -0.1030  0.8340
11208WAT      O45537   1.509   3.307   5.428 -0.4420 -0.0006 -0.1279
11208WAT     H145538   1.511   3.306   5.516  1.2561  2.9499 -0.0098
11208WAT     H245539   1.565   3.243   5.406  0.3547  0.2538  1.0335
11208WAT    EPW45540   1.518   3.297   5.438  0.1621 -0.4118 -0.2855
11209WAT      O45541   7.165   1.916   1.103 -0.2531  0.3376  0.2152
11209WAT     H145542   7.213   1.874   1.163 -0.9080 -0.2733  0.3253
11209WAT     H245543   7.186   2.000   1.116  1.4802  0.0409 -0.3573
11209WAT    EPW45544   7.175   1.922   1.114 -0.6944 -0.3394 -0.4669
11210WAT      O45545   1.321   6.599   3.742  0.3617 -0.6552 -0.5937
11210WAT     H145546   1.247   6.553   3.741 -0.0288 -0.1162  0.6371
11210WAT     H245547   1.376   6.550   3.789  0.1369 -0.1715  0.1984
11210WAT    EPW45548   1.318   6.585   3.749  0.3095 -0.0332 -0.0980
11211WAT      O45549   1.615   4.018   7.537  0.0314 -0.4451 -0.4550
11211WAT     H145550   1.570   4.088   7.562 -3.3149 -1.7931 -2.0488
11211WAT     H245551   1.697   4.047   7.531 -0.4776  2.2019  2.7584
11211WAT    EPW45552   1.621   4.033   7.540  0.0192 -0.1281  0.6493
11212WAT      O45553   6.481   4.896   4.062 -0.0629  0.5908 -0.5437
11212WAT     H145554   6.449   4.815   4.060  1.1945 -0.0253  1.2616
11212WAT     H245555   6.429   4.937   4.119  0.0534  0.6784 -0.4996
11212WAT    EPW45556   6.468   4.890   4.070  0.2384  0.3234  0.1866
11213WAT      O45557   1.823   3.195   6.863 -0.3606 -0.0284  0.4643
11213WAT     H145558   1.829   3.250   6.930  1.8161 -0.9746  1.1555
11213WAT     H245559   1.739   3.174   6.860 -0.9833  2.1661  1.1011
11213WAT    EPW45560   1.812   3.200   6.872  0.2606 -0.1156  0.3984
11214WAT      O45561   3.947   3.501   5.861 -0.2184  0.3317 -0.5567
11214WAT     H145562   3.889   3.501   5.795 -1.6641  0.0127  0.6719
11214WAT     H245563   3.901   3.530   5.929  1.2127  0.5480  0.3544
11214WAT    EPW45564   3.932   3.505   5.861  0.4465 -0.0011 -0.3160
11215WAT      O45565   0.098   6.838   4.719  0.1110  0.3723  0.8376
11215WAT     H145566   0.059   6.802   4.649  0.5953  1.3892  0.0078
11215WAT     H245567   0.074   6.787   4.785 -0.8914 -0.2484  0.0190
11215WAT    EPW45568   0.089   6.825   4.718 -0.2542  0.4020  0.1856
11216WAT      O45569   6.027   6.013   1.012  0.7541  0.7569 -0.1404
11216WAT     H145570   6.038   6.055   0.936  0.1622  1.5766  0.2154
11216WAT     H245571   5.943   5.988   1.009  1.2623 -1.0426 -0.6468
11216WAT    EPW45572   6.016   6.016   1.000 -0.3582 -0.3829 -0.3973
11217WAT      O45573   6.227   1.247   2.603  0.0664 -0.0770  0.2217
11217WAT     H145574   6.193   1.326   2.588 -3.2870 -1.4347 -0.3122
11217WAT     H245575   6.248   1.219   2.523  1.9935  0.4864  0.4859
11217WAT    EPW45576   6.225   1.254   2.589 -0.1491  0.4864  0.0847
11218WAT      O45577   6.552   2.986   5.450  0.5898 -0.0565  0.0891
11218WAT     H145578   6.590   2.935   5.510 -1.3248 -1.1318  0.4855
11218WAT     H245579   6.485   3.022   5.494  0.3755  0.7634 -0.8705
11218WAT    EPW45580   6.548   2.984   5.465  0.0602 -0.1347 -0.4602
11219WAT      O45581   2.970   3.940   6.632 -0.1005 -0.1171  0.1381
11219WAT     H145582   2.902   3.930   6.686 -1.1327  0.0148 -1.1012
11219WAT     H245583   2.935   3.976   6.561  1.7033  2.5798  0.4427
11219WAT    EPW45584   2.954   3.944   6.630  0.1469 -0.4244  0.6326
11220WAT      O45585   2.587   4.539   6.689  0.0773 -0.5163 -0.5417
11220WAT     H145586   2.591   4.573   6.769  1.5729 -0.1445 -0.7465
11220WAT     H245587   2.529   4.589   6.648  0.7331  0.5101 -0.2399
11220WAT    EPW45588   2.579   4.551   6.695  0.5165  0.4161  0.3607
11221WAT      O45589   0.315   2.371   4.328  0.0630 -0.0409 -0.3398
11221WAT     H145590   0.336   2.348   4.247 -0.5922 -1.6686 -0.0862
11221WAT     H245591   0.391   2.368   4.371  0.0448 -1.5019 -0.3873
11221WAT    EPW45592   0.329   2.367   4.323 -0.1222  0.1468 -0.7267
11222WAT      O45593   4.308   7.271   4.618  0.0413  0.2011 -0.3251
11222WAT     H145594   4.260   7.301   4.551  1.3969 -0.4529 -1.6295
11222WAT     H245595   4.314   7.340   4.671 -0.9520  0.7693 -0.9256
11222WAT    EPW45596   4.302   7.286   4.616  0.3212  0.3031  0.2533
11223WAT      O45597   6.658   1.718   0.822 -0.0430 -1.0048 -0.3132
11223WAT     H145598   6.726   1.685   0.865  1.7141  0.8397 -1.4856
11223WAT     H245599   6.591   1.706   0.876  1.4505 -1.7260  1.4589
11223WAT    EPW45600   6.658   1.711   0.836 -0.0782 -0.5431  0.1323
11224WAT      O45601   2.756   6.647   1.271 -0.8782  0.0794 -0.2624
11224WAT     H145602   2.715   6.572   1.257 -0.8333 -0.1003  0.5187
11224WAT     H245603   2.694   6.699   1.305 -1.0080  0.5257 -1.1625
11224WAT    EPW45604   2.741   6.644   1.274  0.2474  0.0037 -0.1518
11225WAT      O45605   4.679   0.747   7.464 -0.2877  0.1614  0.3508
11225WAT     H145606   4.722   0.715   7.396  0.5958  2.0216 -0.0109
11225WAT     H245607   4.659   0.676   7.511  1.8206 -0.8979 -0.2476
11225WAT    EPW45608   4.682   0.732   7.461  0.3369 -0.0283 -0.7081
11226WAT      O45609   5.213  -0.023   6.692  0.2227 -0.0979 -0.3923
11226WAT     H145610   5.260   0.006   6.624 -0.0383 -0.1865 -0.6105
11226WAT     H245611   5.220   0.042   6.750  0.6009 -0.1024 -0.4284
11226WAT    EPW45612   5.221  -0.009   6.691 -0.3138  0.1280 -0.1937
11227WAT      O45613   1.304   6.237   1.763  0.0960 -0.2801 -0.3313
11227WAT     H145614   1.286   6.153   1.747 -1.4077  0.1957 -1.4054
11227WAT     H245615   1.381   6.249   1.724  0.7635 -1.3514  0.5933
11227WAT    EPW45616   1.313   6.226   1.755 -0.0227  0.0412 -0.1099
11228WAT      O45617   3.356   1.647   1.252  0.3261  0.7680  0.7460
11228WAT     H145618   3.312   1.689   1.189  1.0742 -1.3733 -1.3919
11228WAT     H245619   3.309   1.662   1.324 -3.0030  0.0154 -1.0534
11228WAT    EPW45620   3.343   1.655   1.253 -0.1660 -0.5063  0.0867
11229WAT      O45621   2.787   6.374   3.576 -0.0265  0.1659  0.1278
11229WAT     H145622   2.785   6.453   3.539 -1.3923 -0.9079 -2.2907
11229WAT     H245623   2.733   6.382   3.645  0.7724  1.6048  0.6191
11229WAT    EPW45624   2.778   6.387   3.581  0.4731 -0.0674 -0.0987
11230WAT      O45625   0.447   4.453   6.436 -0.2193  0.3457  0.1015
11230WAT     H145626   0.415   4.468   6.516 -1.3181 -1.3883  0.0279
11230WAT     H245627   0.377   4.432   6.389  0.6680 -0.6618 -0.8158
11230WAT    EPW45628   0.432   4.452   6.441  0.4071  0.7477  0.0227
11231WAT      O45629   2.528   4.068   7.599  0.6988 -0.1614 -0.2606
11231WAT     H145630   2.607   4.098   7.578  0.1270  1.0905 -0.7292
11231WAT     H245631   2.544   3.989   7.632  2.3523  0.8290  1.5159
11231WAT    EPW45632   2.542   4.061   7.601 -0.4921  0.3056 -0.4465
11232WAT      O45633   6.657   4.071   3.689 -0.3738 -0.0541 -0.3487
11232WAT     H145634   6.681   3.996   3.653 -0.7775 -0.6058  0.5043
11232WAT     H245635   6.725   4.124   3.674  1.4084 -1.5157  1.9074
11232WAT    EPW45636   6.670   4.068   3.681  0.7436 -0.6939 -0.7580
11233WAT      O45637   2.390   0.100   4.523 -0.0111  0.2187  0.3029
11233WAT     H145638   2.427   0.179   4.523  0.8533 -0.1655 -0.7648
11233WAT     H245639   2.404   0.071   4.604 -2.8005  2.2083  1.6775
11233WAT    EPW45640   2.398   0.108   4.535  0.0335  0.6239  0.2007
11234WAT      O45641   4.405   1.656   3.757  0.5904 -0.2572  0.0323
11234WAT     H145642   4.348   1.720   3.743  0.1358 -0.0493  2.3329
11234WAT     H245643   4.370   1.588   3.715 -0.6487  0.2180  0.2501
11234WAT    EPW45644   4.391   1.655   3.749  0.0965 -0.8196  0.1807
11235WAT      O45645   1.128   2.684   6.998  0.4239 -0.4227 -0.3376
11235WAT     H145646   1.206   2.649   7.017 -0.1530 -0.7498  1.6056
11235WAT     H245647   1.075   2.649   7.057 -1.0152  0.5918 -0.9793
11235WAT    EPW45648   1.132   2.674   7.010  0.4322 -0.0614 -0.1396
11236WAT      O45649   3.202   6.668   6.227  0.2017  0.1127  0.8883
11236WAT     H145650   3.198   6.755   6.220  0.3389  0.0823  0.4343
11236WAT     H245651   3.268   6.655   6.282  2.3343  0.2185 -1.4534
11236WAT    EPW45652   3.212   6.679   6.234  0.5519  0.1507  0.3254
11237WAT      O45653   0.239   4.963   4.691 -0.7087 -0.5916  0.5461
11237WAT     H145654   0.248   5.047   4.715  0.2074  0.1202 -1.9172
11237WAT     H245655   0.274   4.919   4.757 -0.4157  1.0117  1.5246
11237WAT    EPW45656   0.246   4.969   4.704 -0.0147 -0.1578  0.0427
11238WAT      O45657   6.841   6.035   4.599  0.8188  0.1154 -0.3802
11238WAT     H145658   6.905   6.046   4.658  1.2696  0.2833 -0.8919
11238WAT     H245659   6.774   6.006   4.647  0.9593  0.9135  0.3178
11238WAT    EPW45660   6.841   6.032   4.615  0.0707  0.2163  0.9480
11239WAT      O45661   2.723   6.829   7.067  0.0353 -0.7872  0.5202
11239WAT     H145662   2.662   6.795   7.015  0.1926 -0.7270  0.2928
11239WAT     H245663   2.793   6.779   7.051 -0.7504 -2.9827  3.1476
11239WAT    EPW45664   2.724   6.816   7.057 -0.2018 -0.5394  0.1879
11240WAT      O45665   3.514   1.894   4.304  0.1145 -0.1648  0.3254
11240WAT     H145666   3.501   1.979   4.312  1.1243  0.1505 -1.0224
11240WAT     H245667   3.514   1.881   4.218  2.9364 -0.9632  0.3432
11240WAT    EPW45668   3.512   1.904   4.293 -0.2123  0.2417  0.1002
11241WAT      O45669   5.065   7.425   7.498 -0.0372  0.5949 -0.7977
11241WAT     H145670   5.080   7.340   7.483 -0.5406  0.6271 -1.5443
11241WAT     H245671   5.047   7.427   7.583  1.4588  0.1807 -0.4306
11241WAT    EPW45672   5.065   7.413   7.508 -0.7876 -0.0802 -0.4563
11242WAT      O45673   5.418   0.151   3.805 -0.2421 -0.4203 -0.4928
11242WAT     H145674   5.493   0.106   3.815  0.3113  0.4017 -0.8539
11242WAT     H245675   5.384   0.150   3.886  1.3557  1.2331  0.2610
11242WAT    EPW45676   5.424   0.144   3.819 -0.5562  0.0847  0.6256
11243WAT      O45677   3.199   0.561   5.471 -0.0117 -0.0313 -0.2726
11243WAT     H145678   3.124   0.604   5.460  0.4485  0.4106 -2.0257
11243WAT     H245679   3.181   0.504   5.535 -2.3398 -1.0934 -1.7571
11243WAT    EPW45680   3.185   0.559   5.479 -0.0306  0.3831  0.2276
11244WAT      O45681   2.846   6.431   6.989  0.1431  0.0514  0.3859
11244WAT     H145682   2.850   6.407   7.073  1.1170 -1.6056 -0.1033
11244WAT     H245683   2.886   6.509   6.989 -0.9481  0.6670  1.6177
11244WAT    EPW45684   2.852   6.439   7.002  0.1138  0.0037 -0.6024
11245WAT      O45685   1.632   3.889   5.992  0.2023  0.0369 -0.4816
11245WAT     H145686   1.561   3.838   5.992  1.1809 -1.3779 -1.5864
11245WAT     H245687   1.612   3.952   5.936 -0.4923  0.1171 -0.1568
11245WAT    EPW45688   1.618   3.891   5.984  0.1890 -0.0521  0.2463
11246WAT      O45689   6.013   0.802   1.196 -0.0817 -0.0500 -0.1956
11246WAT     H145690   5.935   0.776   1.225  0.5675 -0.8465  0.8856
11246WAT     H245691   6.001   0.808   1.109 -0.6603 -2.7093 -0.3850
11246WAT    EPW45692   5.999   0.799   1.187  0.1395  0.1695  0.4480
11247WAT      O45693   6.851   7.211   6.766  0.0772 -0.2114  0.1637
11247WAT     H145694   6.872   7.197   6.850  0.7315 -0.1180  0.0178
11247WAT     H245695   6.926   7.236   6.730 -0.5693  1.5675 -0.0543
11247WAT    EPW45696   6.865   7.213   6.773 -0.2019  0.3680 -0.6763
11248WAT      O45697   2.439   2.182   2.935 -0.3172  0.3368 -0.1040
11248WAT     H145698   2.514   2.141   2.918 -1.0119 -0.1454 -2.5261
11248WAT     H245699   2.458   2.266   2.920  0.5329  0.7080  2.6399
11248WAT    EPW45700   2.452   2.188   2.930 -0.0386 -0.0132  0.2666
11249WAT      O45701   2.812   1.263   4.763  0.0820  0.1249  0.5036
11249WAT     H145702   2.847   1.341   4.747 -0.4408  0.1860 -0.4505
11249WAT     H245703   2.815   1.223   4.686 -0.2921 -0.5347  0.8202
11249WAT    EPW45704   2.818   1.268   4.750  0.5999 -0.2482  0.0821
11250WAT      O45705   3.955   5.731   6.152  0.3967 -0.5353  0.4264
11250WAT     H145706   3.945   5.816   6.171  0.9204 -0.3806  0.0069
11250WAT     H245707   4.020   5.730   6.094  0.0131 -1.1739 -0.0016
11250WAT    EPW45708   3.963   5.743   6.146  0.2130 -0.6916  0.3235
11251WAT      O45709   3.302   3.203   1.849 -0.1128 -0.0577  0.3968
11251WAT     H145710   3.255   3.233   1.783  0.1159  0.1427  0.3220
11251WAT     H245711   3.359   3.148   1.812 -1.8678 -2.2543  0.7627
11251WAT    EPW45712   3.304   3.200   1.834 -0.0547  0.3716 -0.4375
11252WAT      O45713   2.319   1.296   1.704 -0.0443 -0.9403 -0.0660
11252WAT     H145714   2.331   1.377   1.674 -0.5076 -0.6702  0.4427
11252WAT     H245715   2.261   1.262   1.649 -0.6592 -0.5513  0.3175
11252WAT    EPW45716   2.312   1.303   1.692  0.0486  0.2399 -0.2350
11253WAT      O45717   4.972   6.364   3.523 -0.2956 -0.2153  0.2518
11253WAT     H145718   4.907   6.366   3.465  1.3209 -0.1780 -1.6953
11253WAT     H245719   4.966   6.284   3.558 -0.6027 -0.7096 -0.8824
11253WAT    EPW45720   4.962   6.352   3.520 -0.1078 -0.3808 -0.0076
11254WAT      O45721   7.549   3.721   4.373 -0.4422 -0.1997  0.6250
11254WAT     H145722   7.548   3.754   4.292 -0.2199  0.1443  0.7608
11254WAT     H245723   7.570   3.789   4.423  1.0061 -0.7484  0.8047
11254WAT    EPW45724   7.552   3.736   4.368 -0.2147 -0.2591  0.4686
11255WAT      O45725   4.838   0.577   5.837  0.1805  0.3688  0.0248
11255WAT     H145726   4.913   0.620   5.844  0.6881 -0.2870 -1.0406
11255WAT     H245727   4.835   0.554   5.753 -2.1227  1.9678 -0.4188
11255WAT    EPW45728   4.848   0.580   5.826 -0.2447 -0.1394 -0.0029
11256WAT      O45729   1.040   1.432   0.143  0.0645 -0.2224  0.0568
11256WAT     H145730   0.986   1.411   0.078 -0.1678  0.7817 -0.0902
11256WAT     H245731   1.119   1.433   0.105  0.0738 -0.7672  0.0579
11256WAT    EPW45732   1.044   1.429   0.128  0.0999 -0.4930  0.0228
11257WAT      O45733   3.807   1.918   0.438  0.0721  0.1668  0.4586
11257WAT     H145734   3.782   1.914   0.354  0.5142 -0.6285  0.3573
11257WAT     H245735   3.742   1.877   0.480  1.7568 -3.2723  0.0433
11257WAT    EPW45736   3.793   1.911   0.431  0.1263 -0.3834  0.4018
11258WAT      O45737   7.361   6.628   0.551  0.0643  0.5808 -0.6647
11258WAT     H145738   7.408   6.691   0.589 -0.3068  1.0163 -0.9179
11258WAT     H245739   7.281   6.638   0.585 -0.2874  1.0062 -1.5698
11258WAT    EPW45740   7.356   6.639   0.562  0.6213  0.5952 -0.1821
11259WAT      O45741   0.580   4.812   4.461 -0.1147  0.0946  0.0817
11259WAT     H145742   0.571   4.883   4.413 -0.5961 -1.1349 -1.7444
11259WAT     H245743   0.636   4.762   4.416  1.0775 -0.2789  1.8460
11259WAT    EPW45744   0.587   4.815   4.448 -0.1270 -0.4350 -0.4789
11260WAT      O45745   1.969   7.492   5.471  0.1264  0.4292  0.0791
11260WAT     H145746   1.903   7.436   5.478  0.5303 -0.3819 -2.0423
11260WAT     H245747   2.006   7.471   5.395  2.8856  0.8103  1.2255
11260WAT    EPW45748   1.965   7.481   5.461  0.2492 -0.4203  0.1904
11261WAT      O45749   2.343   4.167   5.737 -0.2992 -0.0247 -0.5434
11261WAT     H145750   2.289   4.199   5.797 -0.7917 -0.2808 -0.8490
11261WAT     H245751   2.418   4.211   5.752 -0.2084 -0.5452  0.6700
11261WAT    EPW45752   2.346   4.178   5.748 -0.1604 -0.0019 -0.5765
11262WAT      O45753   5.778   5.149   1.866  0.2583 -0.4393 -0.3935
11262WAT     H145754   5.780   5.133   1.952  0.4574 -0.0331 -0.3161
11262WAT     H245755   5.863   5.157   1.845  0.2057  3.4153  0.1697
11262WAT    EPW45756   5.791   5.148   1.875  0.1405 -0.3117 -0.1716
11263WAT      O45757   7.568   0.098   5.018  0.7498 -0.3004  0.7469
11263WAT     H145758   7.580   0.013   5.008  1.0920 -0.2250  0.4990
11263WAT     H245759   7.578   0.130   4.937 -0.8245 -0.1854  0.5692
11263WAT    EPW45760   7.571   0.090   5.005 -0.5280 -0.2595 -0.2167
11264WAT      O45761   1.322   5.924   7.563 -0.6225  0.2896 -0.0353
11264WAT     H145762   1.367   5.980   7.612 -0.4202 -1.8050  2.3721
11264WAT     H245763   1.240   5.952   7.569 -0.4891  0.5075  0.8943
11264WAT    EPW45764   1.317   5.936   7.571  0.2706 -0.3224  0.2758
11265WAT      O45765   1.051   3.702   7.295  0.3431 -0.3285 -0.6187
11265WAT     H145766   0.981   3.721   7.344 -0.4403 -2.6609 -0.7499
11265WAT     H245767   1.117   3.709   7.351 -0.0077  1.2504 -0.3328
11265WAT    EPW45768   1.050   3.706   7.311 -0.7709  0.1666  1.2427
11266WAT      O45769   2.516   4.389   3.111  0.2840  0.1276  0.0091
11266WAT     H145770   2.553   4.457   3.070  0.1513  1.0417  1.3280
11266WAT     H245771   2.440   4.379   3.070 -0.3350  1.7258  0.6841
11266WAT    EPW45772   2.510   4.397   3.099 -0.2080  0.3478  0.2404
11267WAT      O45773   0.919   6.608   3.692 -0.1389 -0.0411  0.2479
11267WAT     H145774   0.871   6.562   3.636  0.4154 -2.6069  1.7308
11267WAT     H245775   0.876   6.683   3.699 -0.9569 -0.1456 -2.5104
11267WAT    EPW45776   0.906   6.612   3.685  0.3955 -0.0064 -0.3979
11268WAT      O45777   2.701   6.806   1.687  0.3383  0.3155 -0.1920
11268WAT     H145778   2.642   6.743   1.673  1.0115 -0.6962  1.2657
11268WAT     H245779   2.710   6.843   1.609 -1.7848  0.1226 -0.5869
11268WAT    EPW45780   2.693   6.802   1.673  0.0552 -0.0473  0.2416
11269WAT      O45781   2.780   4.402   2.823 -0.1456 -0.3734  0.5181
11269WAT     H145782   2.734   4.440   2.759 -0.1909 -0.7056  0.3514
11269WAT     H245783   2.752   4.319   2.821 -0.2728 -0.3474  1.0784
11269WAT    EPW45784   2.769   4.395   2.813  0.4217 -0.1535 -0.1863
11270WAT      O45785   5.361   0.505   5.382  0.2002  0.3352  0.2582
11270WAT     H145786   5.349   0.428   5.344 -1.3157 -0.0605  1.4234
11270WAT     H245787   5.348   0.562   5.318 -1.1522 -0.3351 -0.0940
11270WAT    EPW45788   5.357   0.502   5.367  0.1344  0.5646  0.2999
11271WAT      O45789   7.326   2.790   4.693  0.2742 -0.5215 -0.2419
11271WAT     H145790   7.251   2.746   4.701 -0.8396  1.3043 -0.1508
11271WAT     H245791   7.310   2.866   4.733  2.4502 -0.3642  0.4822
11271WAT    EPW45792   7.313   2.795   4.700  0.3522  0.6502  0.5271
11272WAT      O45793   6.754   5.228   6.486 -0.6823 -0.0205 -0.7935
11272WAT     H145794   6.738   5.303   6.445  0.1105  0.2424 -0.6493
11272WAT     H245795   6.842   5.225   6.488 -0.6307  0.7212  2.1522
11272WAT    EPW45796   6.765   5.239   6.480  0.4303 -0.2751  0.8313
11273WAT      O45797   0.691   2.918   0.293  0.0138 -0.5155  0.2221
11273WAT     H145798   0.605   2.930   0.294  0.0315  0.2149  3.1519
11273WAT     H245799   0.704   2.855   0.351  1.4616 -0.7409 -0.2937
11273WAT    EPW45800   0.680   2.911   0.302 -0.2204 -0.1399  0.6768
11274WAT      O45801   1.413   1.590   1.665  0.1397 -0.1634  0.6662
11274WAT     H145802   1.485   1.624   1.630  0.1988 -0.7918  0.1682
11274WAT     H245803   1.349   1.637   1.628 -0.0241 -2.5852 -2.6023
11274WAT    EPW45804   1.414   1.602   1.654 -0.1260 -0.1745  0.4255
11275WAT      O45805   7.200   5.425   4.467 -0.4757 -0.1651  0.2583
11275WAT     H145806   7.262   5.367   4.447 -0.6301 -0.3313  0.2540
11275WAT     H245807   7.238   5.478   4.524 -0.4548 -0.5068  0.5658
11275WAT    EPW45808   7.215   5.424   4.472  0.2629 -0.3512  0.4836
11276WAT      O45809   3.724   0.886   1.843 -0.1942 -0.5040 -0.0742
11276WAT     H145810   3.750   0.960   1.805 -3.4054  0.7881 -0.0624
11276WAT     H245811   3.759   0.824   1.792 -0.3897  1.0890 -2.3001
11276WAT    EPW45812   3.733   0.888   1.830 -0.1949  0.4673  0.4019
11277WAT      O45813   2.574   4.325   5.732  0.0131 -0.3487 -0.1901
11277WAT     H145814   2.637   4.338   5.790  0.6184 -2.4931 -0.2686
11277WAT     H245815   2.612   4.339   5.656 -0.3286  0.8333 -0.1604
11277WAT    EPW45816   2.589   4.329   5.730  0.9069 -0.1037  0.4710
11278WAT      O45817   4.243   5.887   1.979  0.3672 -0.3983 -0.1525
11278WAT     H145818   4.281   5.926   1.911 -1.3197 -0.5115 -1.2124
11278WAT     H245819   4.271   5.805   1.974 -1.3916 -0.9605 -2.0666
11278WAT    EPW45820   4.253   5.881   1.968  0.0619 -0.1489 -0.4681
11279WAT      O45821   3.719   7.052   2.839 -0.0611  0.3694  0.8990
11279WAT     H145822   3.767   7.027   2.908 -1.0511  0.0341  1.4932
11279WAT     H245823   3.762   7.120   2.808  2.3374 -1.5495 -0.3173
11279WAT    EPW45824   3.732   7.058   2.845 -0.2142  0.0867 -0.5416
11280WAT      O45825   5.640   5.162   3.946  0.0867 -0.5422  0.3911
11280WAT     H145826   5.572   5.188   3.993 -0.6271 -2.4631  0.5313
11280WAT     H245827   5.699   5.225   3.957 -1.1285  0.4367  1.4922
11280WAT    EPW45828   5.639   5.175   3.955 -0.0286  0.1058  0.1680
11281WAT      O45829   6.283   1.747   1.345  0.8403 -0.2325  0.1070
11281WAT     H145830   6.276   1.828   1.376  2.0399 -0.2842  0.5708
11281WAT     H245831   6.291   1.698   1.418  0.8387 -0.6877 -0.1952
11281WAT    EPW45832   6.283   1.752   1.361  0.1619  0.9827  0.1782
11282WAT      O45833   2.566   2.214   7.080 -0.1002  0.1638 -0.0942
11282WAT     H145834   2.508   2.225   7.016 -1.5674 -0.0841  1.1291
11282WAT     H245835   2.598   2.134   7.065  0.4582  0.5735 -1.1706
11282WAT    EPW45836   2.563   2.204   7.068  0.1117  0.5031 -0.2526
11283WAT      O45837   6.932   1.723   4.895  0.3009 -0.3236 -0.1156
11283WAT     H145838   6.923   1.638   4.915  0.4535 -0.0550  1.1911
11283WAT     H245839   7.018   1.732   4.883  0.4571 -0.0987  1.0727
11283WAT    EPW45840   6.944   1.712   4.896 -0.1419  0.2645  0.1303
11284WAT      O45841   5.232   0.438   1.526 -0.4699 -0.4165  0.2935
11284WAT     H145842   5.152   0.418   1.555 -1.9990  1.7108 -2.1085
11284WAT     H245843   5.240   0.389   1.454  0.4156 -0.5663  0.4824
11284WAT    EPW45844   5.221   0.428   1.520  0.1720 -0.1808  0.0974
11285WAT      O45845   5.538   7.114   2.743 -0.0038 -0.5758 -0.0982
11285WAT     H145846   5.548   7.098   2.828  0.7600  0.0276 -0.0692
11285WAT     H245847   5.452   7.127   2.735  0.0744  0.8168  0.8633
11285WAT    EPW45848   5.526   7.114   2.754  0.2434 -0.5322 -0.3700
11286WAT      O45849   7.353   0.668   1.868  0.0497 -0.1577 -0.2918
11286WAT     H145850   7.427   0.624   1.861 -0.7887 -1.4834 -1.1784
11286WAT     H245851   7.325   0.649   1.948  0.6753  0.3872  0.0630
11286WAT    EPW45852   7.360   0.659   1.879  0.3591  0.8764  0.3182
11287WAT      O45853   0.867   2.728   3.729 -0.1701  0.1153 -0.6128
11287WAT     H145854   0.905   2.805   3.745  0.0541  0.1718 -1.3730
11287WAT     H245855   0.801   2.748   3.675 -1.3555  0.0282  0.7458
11287WAT    EPW45856   0.863   2.742   3.723  0.2816 -0.0174  0.3830
11288WAT      O45857   5.474   7.223   3.614 -0.2794  0.3085 -0.0039
11288WAT     H145858   5.522   7.291   3.589 -1.1864  0.6239 -0.9721
11288WAT     H245859   5.435   7.251   3.688 -0.1523  0.5999 -0.0471
11288WAT    EPW45860   5.475   7.238   3.622 -0.3058  0.3702 -0.3969
11289WAT      O45861   4.868   7.541   3.646 -0.5482 -0.0338  0.6158
11289WAT     H145862   4.848   7.604   3.705 -1.2675 -0.5637  0.9601
11289WAT     H245863   4.941   7.507   3.677  0.8362  1.7430 -0.4905
11289WAT    EPW45864   4.876   7.545   3.659  0.2916 -0.0901  0.9156
11290WAT      O45865   3.823   2.458   7.203  0.0231 -0.1471 -0.1911
11290WAT     H145866   3.868   2.417   7.266 -0.4118 -0.9103 -0.3739
11290WAT     H245867   3.783   2.394   7.161 -0.3987  0.4410 -0.7003
11290WAT    EPW45868   3.824   2.443   7.206  0.3701 -0.1781  0.1968
11291WAT      O45869   4.672   4.024   1.743 -0.3426 -0.6189  0.0143
11291WAT     H145870   4.655   4.000   1.825  0.7140  1.4421  0.9224
11291WAT     H245871   4.759   4.014   1.737  0.3410  3.1856  0.7221
11291WAT    EPW45872   4.683   4.019   1.754  0.8673  0.0954  0.1561
11292WAT      O45873   2.910   6.453   4.314  0.0499  0.2177 -0.0873
11292WAT     H145874   2.890   6.500   4.244 -0.6043 -0.9739 -0.7390
11292WAT     H245875   2.984   6.414   4.292  2.0714  2.8345  1.4425
11292WAT    EPW45876   2.918   6.454   4.301 -0.4930 -0.4364 -0.3056
11293WAT      O45877   2.127   4.875   3.733  0.2736  0.0005 -0.2077
11293WAT     H145878   2.104   4.944   3.685 -0.1778  1.2923  1.7460
11293WAT     H245879   2.214   4.872   3.724  0.3305  1.0315 -0.0907
11293WAT    EPW45880   2.137   4.884   3.725  0.5714 -0.2788  0.5854
11294WAT      O45881   2.424   1.048   6.440  0.0868  0.1938  0.0852
11294WAT     H145882   2.373   1.090   6.496 -0.0208  0.8532 -0.4944
11294WAT     H245883   2.474   1.110   6.406  0.7705 -0.3348  0.1080
11294WAT    EPW45884   2.424   1.063   6.443  0.1732  0.1389  0.0434
11295WAT      O45885   3.141   5.232   2.682 -0.1263  0.5326  0.7116
11295WAT     H145886   3.212   5.230   2.633  0.1454 -1.3930  1.0963
11295WAT     H245887   3.142   5.311   2.718  1.6817  0.6376  0.4932
11295WAT    EPW45888   3.152   5.243   2.680  0.2407 -0.1078  0.0449
11296WAT      O45889   0.291   3.638   1.013 -0.1555  0.1129 -0.1641
11296WAT     H145890   0.231   3.684   1.056 -0.3442  1.2329 -1.5424
11296WAT     H245891   0.318   3.692   0.950  0.3906 -1.2822 -1.2061
11296WAT    EPW45892   0.286   3.653   1.010 -0.3228  0.3852 -0.2140
11297WAT      O45893   7.465   1.184   2.154 -0.5710 -0.1595 -0.1229
11297WAT     H145894   7.458   1.105   2.193  0.8028 -0.6004 -0.7089
11297WAT     H245895   7.510   1.231   2.212  0.6222 -0.5269 -0.7042
11297WAT    EPW45896   7.471   1.179   2.168  0.0948  0.1958  0.3408
11298WAT      O45897   3.975   1.994   3.901  0.3099 -0.0573  0.7445
11298WAT     H145898   3.952   2.061   3.953 -0.8715 -0.6065  0.9592
11298WAT     H245899   3.918   1.998   3.835  0.0516 -1.0140  0.8937
11298WAT    EPW45900   3.963   2.005   3.899  0.0234  0.3689 -0.0971
11299WAT      O45901   4.671   5.571   0.177 -0.2542  0.1744  1.0280
11299WAT     H145902   4.672   5.653   0.207 -1.0742 -0.0480  1.6928
11299WAT     H245903   4.647   5.580   0.094  0.0990  0.6420  0.9703
11299WAT    EPW45904   4.668   5.584   0.170 -0.1683 -0.3749 -0.2520
11300WAT      O45905   4.553   2.410   3.814  0.4233 -0.1565 -0.3818
11300WAT     H145906   4.521   2.422   3.733  1.7710  2.3127 -0.6584
11300WAT     H245907   4.492   2.443   3.866  0.2186 -0.3654 -0.4870
11300WAT    EPW45908   4.539   2.416   3.809 -0.8087  0.3008 -0.1938
11301WAT      O45909   2.825   2.664   0.536  0.2064 -0.2805 -0.5163
11301WAT     H145910   2.768   2.613   0.577 -1.1086 -0.1277 -2.0450
11301WAT     H245911   2.845   2.619   0.464  1.3269  0.0715 -0.4410
11301WAT    EPW45912   2.820   2.650   0.531  0.0405  0.8339 -0.2315
11302WAT      O45913   6.532   7.117   1.857  0.6529 -0.4006  0.2223
11302WAT     H145914   6.501   7.097   1.936  0.3210 -0.3260  0.1113
11302WAT     H245915   6.474   7.174   1.826  0.1150 -1.3305 -0.5543
11302WAT    EPW45916   6.519   7.122   1.864  0.0698 -0.0620  0.3466
11303WAT      O45917   3.685   3.296   6.854  0.3500 -0.0203 -0.3610
11303WAT     H145918   3.611   3.251   6.838 -0.4917  1.1214  0.1941
11303WAT     H245919   3.733   3.240   6.900  0.4428 -1.2932 -1.8876
11303WAT    EPW45920   3.681   3.281   6.858 -0.0212  0.0325  0.0367
11304WAT      O45921   0.084   5.670   0.747  0.2260 -0.4179 -0.1190
11304WAT     H145922   0.083   5.653   0.833 -0.3364  0.9199  0.1690
11304WAT     H245923   0.054   5.597   0.711  1.0009 -1.2010  0.7746
11304WAT    EPW45924   0.079   5.657   0.755  0.2510  0.0361 -0.0508
11305WAT      O45925   1.461   3.649   6.027  0.6464 -0.1589 -0.1602
11305WAT     H145926   1.392   3.624   5.980  0.9670 -0.3467 -0.5379
11305WAT     H245927   1.519   3.586   6.013  0.5357 -0.5406  0.9952
11305WAT    EPW45928   1.459   3.636   6.018  0.3122  0.0772 -0.1496
11306WAT      O45929   7.613   2.808   4.276 -0.2120  0.4629  0.1769
11306WAT     H145930   7.552   2.797   4.337 -0.3045  2.3727  0.4891
11306WAT     H245931   7.683   2.769   4.310 -1.0573 -1.2175  0.0881
11306WAT    EPW45932   7.615   2.801   4.290 -0.3553 -0.0185  0.2646
11307WAT      O45933   1.102   0.293   4.414 -0.2023 -0.0842 -0.2635
11307WAT     H145934   1.041   0.307   4.354  0.4045  0.9490 -0.6728
11307WAT     H245935   1.099   0.365   4.464  0.8382  0.1227 -0.4605
11307WAT    EPW45936   1.093   0.306   4.413  0.4688  0.5336  0.0058
11308WAT      O45937   5.505   2.160   2.061  0.5135 -0.2681  0.1194
11308WAT     H145938   5.440   2.105   2.040  0.5313  0.2598 -1.4788
11308WAT     H245939   5.577   2.112   2.050  0.6483  0.3851 -2.9158
11308WAT    EPW45940   5.506   2.145   2.056  0.0334  0.1656 -0.1034
11309WAT      O45941   0.271   0.255   2.595 -0.6676  0.2723 -0.0536
11309WAT     H145942   0.272   0.261   2.682 -1.0754  0.1453 -0.0377
11309WAT     H245943   0.330   0.193   2.578 -0.7791  0.1087  0.1512
11309WAT    EPW45944   0.280   0.246   2.605 -0.0467 -0.0226  0.2460
11310WAT      O45945   1.787   4.444   0.154  0.4826  0.2248 -0.3387
11310WAT     H145946   1.826   4.379   0.198 -2.4592 -0.8880  0.9075
11310WAT     H245947   1.825   4.516   0.185  1.0157 -0.7287  1.3454
11310WAT    EPW45948   1.798   4.445   0.165  0.3590  0.0136  0.1359
11311WAT      O45949   0.386   4.366   2.940 -0.5502 -0.3958  0.2905
11311WAT     H145950   0.364   4.450   2.935 -0.8055 -0.4872 -0.2750
11311WAT     H245951   0.353   4.340   3.016 -0.1953  0.0912  0.6133
11311WAT    EPW45952   0.378   4.374   2.950 -0.1779 -0.5392 -0.3275
11312WAT      O45953   0.741   7.158   5.677  0.0490  0.6289 -0.8789
11312WAT     H145954   0.791   7.155   5.748 -0.4765  0.6985 -0.5012
11312WAT     H245955   0.793   7.125   5.615  0.7420  1.1878 -0.6097
11312WAT    EPW45956   0.756   7.152   5.678 -0.3474  0.0276 -0.2568
11313WAT      O45957   6.106   1.936   5.319  0.3437  0.5026  0.6129
11313WAT     H145958   6.137   1.956   5.240  2.1000 -1.3069  0.7478
11313WAT     H245959   6.158   1.980   5.374 -0.4533  1.2386  0.7957
11313WAT    EPW45960   6.118   1.945   5.316 -0.2402  0.7884  0.6579
11314WAT      O45961   1.237   1.498   4.473  0.2897 -0.4029 -0.3052
11314WAT     H145962   1.199   1.451   4.410 -0.3353 -0.5761  0.1881
11314WAT     H245963   1.322   1.485   4.460  0.1497 -0.9138 -0.7566
11314WAT    EPW45964   1.244   1.489   4.462  0.5437  0.3787 -0.1462
11315WAT      O45965   5.318   5.646   0.788 -0.3159 -0.0298  0.0229
11315WAT     H145966   5.276   5.570   0.777  0.2262 -0.2777 -0.3634
11315WAT     H245967   5.348   5.641   0.870  1.3516 -1.0804 -0.5960
11315WAT    EPW45968   5.316   5.634   0.799  0.4146  0.4435  0.1866
11316WAT      O45969   1.774   4.750   2.362 -0.0212 -0.0419  0.1142
11316WAT     H145970   1.842   4.761   2.416  0.5119  1.7706 -0.8093
11316WAT     H245971   1.706   4.781   2.407  0.3191  0.8998  0.0137
11316WAT    EPW45972   1.774   4.756   2.376  0.1916 -0.2469  0.6595
11317WAT      O45973   2.573   1.314   6.611 -0.0521 -0.2601 -0.0182
11317WAT     H145974   2.616   1.279   6.544 -2.6883 -0.3388 -1.8251
11317WAT     H245975   2.554   1.395   6.583 -0.5276 -0.0162  0.9576
11317WAT    EPW45976   2.577   1.321   6.597  0.2512  0.0227  0.2805
11318WAT      O45977   5.847   0.150   2.234 -0.3276 -0.5829 -0.1829
11318WAT     H145978   5.816   0.124   2.158  1.0046  0.0753 -0.9960
11318WAT     H245979   5.924   0.110   2.240 -0.1109 -0.0916  0.4863
11318WAT    EPW45980   5.854   0.141   2.224 -0.1745  0.3295 -0.1235
11319WAT      O45981   6.708   7.301   2.259 -0.2262 -0.1958 -0.3038
11319WAT     H145982   6.723   7.217   2.239 -1.8196 -0.3499 -0.9875
11319WAT     H245983   6.773   7.343   2.219  1.8491 -1.1887  1.7413
11319WAT    EPW45984   6.720   7.295   2.250 -0.2014  0.1361  0.6415
11320WAT      O45985   4.042   2.180   3.655 -0.6620  0.2682  0.0523
11320WAT     H145986   4.115   2.217   3.687 -1.2281  0.6967  0.8871
11320WAT     H245987   4.052   2.188   3.569  0.2254  0.4346  0.1539
11320WAT    EPW45988   4.055   2.187   3.647  0.8776 -0.0758 -0.6021
11321WAT      O45989   1.792   2.830   7.131 -0.3162  0.2767 -0.6355
11321WAT     H145990   1.719   2.875   7.147  0.0867  0.7446 -0.0387
11321WAT     H245991   1.810   2.793   7.208  0.0202  0.0900 -0.8039
11321WAT    EPW45992   1.784   2.831   7.145 -0.1932  0.5100 -0.4034
11322WAT      O45993   3.350   6.651   0.783  0.1489 -0.1446 -0.2533
11322WAT     H145994   3.370   6.596   0.848 -2.0663  0.4669  1.0359
11322WAT     H245995   3.362   6.603   0.711 -1.3319 -2.2352  0.7975
11322WAT    EPW45996   3.355   6.635   0.782 -0.6326 -0.0314  0.2293
11323WAT      O45997   0.751   3.129   1.704 -0.2108  0.5166  0.2363
11323WAT     H145998   0.740   3.052   1.744 -1.4849  0.8572  0.5874
11323WAT     H245999   0.736   3.110   1.620  0.6392  0.1729  0.1430
11323WAT    EPW46000   0.747   3.115   1.697 -0.0679 -0.1774  0.6976
11324WAT      O46001   0.251   6.577   6.032  0.0148  0.1658 -0.3372
11324WAT     H146002   0.305   6.513   6.057  0.2287  0.8791  1.1311
11324WAT     H246003   0.227   6.614   6.107 -1.1306  0.9882 -1.0806
11324WAT    EPW46004   0.256   6.573   6.047  0.6123 -0.2741  0.4148
11325WAT      O46005   6.138   1.332   7.554 -0.0239 -0.4761 -0.3444
11325WAT     H146006   6.206   1.279   7.564  0.8366  0.4140 -1.2187
11325WAT     H246007   6.174   1.405   7.523 -1.4834 -0.2797 -1.6783
11325WAT    EPW46008   6.153   1.335   7.551 -0.0017  0.2376  0.2634
11326WAT      O46009   7.597   5.104   0.875  0.7891 -0.4112  0.0025
11326WAT     H146010   7.538   5.042   0.892  1.1119 -0.5838  0.5253
11326WAT     H246011   7.618   5.135   0.954  0.1928  0.7922 -0.2801
11326WAT    EPW46012   7.592   5.100   0.889 -0.0727 -0.6046 -0.3082
11327WAT      O46013   4.740   1.249   3.025 -0.4031  0.0888 -0.0888
11327WAT     H146014   4.654   1.247   3.011 -0.4800  1.5876 -0.0518
11327WAT     H246015   4.774   1.254   2.944 -0.3052 -0.9253 -0.1264
11327WAT    EPW46016   4.733   1.250   3.011  0.9236 -0.1002  0.4743
11328WAT      O46017   0.024   4.884   2.977 -0.6203  0.5445  0.0269
11328WAT     H146018   0.091   4.937   2.990 -0.4657  0.2767  0.3591
11328WAT     H246019  -0.038   4.936   2.945 -0.5021  0.9418  0.4271
11328WAT    EPW46020   0.024   4.899   2.974 -0.0915 -0.0043  0.0119
11329WAT      O46021   3.596   2.521   3.312 -0.3745 -0.2479  0.1128
11329WAT     H146022   3.583   2.503   3.227 -0.4210 -2.4374  0.5076
11329WAT     H246023   3.682   2.525   3.319 -0.3953  0.9574 -0.1981
11329WAT    EPW46024   3.606   2.519   3.300 -0.5234  0.4801  0.0797
11330WAT      O46025   0.551   7.458   4.870 -0.3051 -0.3007 -0.7559
11330WAT     H146026   0.629   7.427   4.843 -0.6100 -0.8150 -1.0596
11330WAT     H246027   0.567   7.543   4.884  0.3679 -0.4466 -0.5998
11330WAT    EPW46028   0.565   7.466   4.868 -0.0783 -0.4812  0.2282
11331WAT      O46029   7.086   1.167   3.297 -0.4317  0.1018  0.2452
11331WAT     H146030   7.090   1.080   3.309 -1.6136 -0.4693 -2.6111
11331WAT     H246031   7.004   1.180   3.269  0.5820  1.5934 -2.4263
11331WAT    EPW46032   7.074   1.156   3.295 -0.1105 -0.1692 -0.7805
11332WAT      O46033   0.962   3.154   1.161  0.2075  0.7506 -0.2343
11332WAT     H146034   0.989   3.155   1.244  0.6769  2.5808 -0.3632
11332WAT     H246035   1.033   3.133   1.116  0.0956  0.3235 -0.2116
11332WAT    EPW46036   0.976   3.151   1.167 -0.5865 -0.1304 -0.3775
11333WAT      O46037   0.775   7.322   5.091  0.0877  0.4855  0.1950
11333WAT     H146038   0.734   7.396   5.114 -0.2369 -0.1577  1.8920
11333WAT     H246039   0.724   7.259   5.125  1.1174 -0.4477  0.0806
11333WAT    EPW46040   0.761   7.323   5.100  0.7937 -0.5754  0.9858
11334WAT      O46041   6.539   6.563   0.688 -0.2178 -0.5088  0.4111
11334WAT     H146042   6.594   6.609   0.737 -1.8111  1.6534  0.2931
11334WAT     H246043   6.542   6.603   0.610  0.2620 -2.2370 -0.5215
11334WAT    EPW46044   6.547   6.576   0.683  0.2706 -0.3115  0.4470
11335WAT      O46045   1.309   4.761   4.703  0.3754 -0.1360 -0.1362
11335WAT     H146046   1.306   4.728   4.622  0.6110  2.1817 -1.1880
11335WAT     H246047   1.341   4.696   4.751 -0.3448 -1.7940 -1.7841
11335WAT    EPW46048   1.313   4.746   4.698 -0.2073 -0.2675  0.1571
11336WAT      O46049   3.731   1.000   3.710  0.1179  0.5366  0.1016
11336WAT     H146050   3.761   0.983   3.630  0.1024 -0.4556  0.2942
11336WAT     H246051   3.803   1.018   3.755  0.3556 -0.9049  0.3365
11336WAT    EPW46052   3.746   1.000   3.705  0.1875 -0.0509  0.2812
11337WAT      O46053   6.261   6.613   2.315 -0.0692  0.6554 -0.1379
11337WAT     H146054   6.281   6.544   2.364 -0.9512  0.0989 -0.5356
11337WAT     H246055   6.179   6.632   2.337  0.4760  2.2545  0.7205
11337WAT    EPW46056   6.252   6.606   2.325 -0.0275  0.5416 -0.1393
11338WAT      O46057   5.520   5.365   2.457  0.4147 -0.1920 -0.3760
11338WAT     H146058   5.475   5.308   2.408 -0.3389 -0.1742  0.2632
11338WAT     H246059   5.574   5.403   2.401 -1.1407  0.5824 -1.4410
11338WAT    EPW46060   5.521   5.362   2.442  0.5902  0.2924  0.3717
11339WAT      O46061   2.165   3.879   3.312 -0.4375 -0.1609 -0.5664
11339WAT     H146062   2.179   3.815   3.254  0.9729 -0.5069  0.1121
11339WAT     H246063   2.185   3.842   3.389 -0.6686  0.7742 -0.0375
11339WAT    EPW46064   2.170   3.864   3.315 -0.5799  0.1241  0.2841
11340WAT      O46065   1.198   4.845   2.840  0.1938 -0.0133 -0.1551
11340WAT     H146066   1.220   4.866   2.921  2.0259 -0.0005 -0.6123
11340WAT     H246067   1.135   4.902   2.820 -1.3494 -0.9613  1.7037
11340WAT    EPW46068   1.192   4.856   2.849 -0.0981  0.0753  0.1047
11341WAT      O46069   4.917   6.159   6.653 -0.9277  0.2867 -0.0054
11341WAT     H146070   4.900   6.244   6.650 -1.1798  0.2175 -0.9096
11341WAT     H246071   4.944   6.146   6.735 -1.2860  1.1537  0.2612
11341WAT    EPW46072   4.918   6.170   6.665  0.7756 -0.0184  0.1958
11342WAT      O46073   6.636   1.063   0.135 -0.1775 -0.5536  0.4669
11342WAT     H146074   6.626   0.994   0.083 -0.5018  0.4517 -0.8397
11342WAT     H246075   6.557   1.075   0.169 -0.4364 -0.0664 -0.2948
11342WAT    EPW46076   6.623   1.055   0.132  0.0655 -0.3569  0.6143
11343WAT      O46077   3.925   6.959   2.988  0.2785 -0.2333 -0.3208
11343WAT     H146078   3.915   6.873   2.998  0.2748 -0.3589 -1.3217
11343WAT     H246079   3.939   6.988   3.069 -0.1250 -1.1218  0.0699
11343WAT    EPW46080   3.926   6.951   3.001  0.4214  0.0591 -0.4626
11344WAT      O46081   7.315   4.060   1.708  0.2998 -0.0062 -0.0468
11344WAT     H146082   7.367   4.126   1.684 -1.2909  1.4455  0.3510
11344WAT     H246083   7.368   3.990   1.706  1.7923  1.1073 -1.4197
11344WAT    EPW46084   7.331   4.059   1.704  0.7517  0.0554 -0.2231
11345WAT      O46085   1.263   1.422   3.246 -0.4001 -0.4331 -0.0710
11345WAT     H146086   1.215   1.393   3.179  1.8111  0.3204 -2.1166
11345WAT     H246087   1.244   1.507   3.250 -0.9421 -0.5799  0.6680
11345WAT    EPW46088   1.253   1.430   3.236  0.2849 -0.1214 -0.7761
11346WAT      O46089   4.636   5.431   1.374 -0.1828  0.0064  0.2993
11346WAT     H146090   4.670   5.395   1.302 -1.6286 -1.3686  0.2605
11346WAT     H246091   4.592   5.500   1.345  0.5358  0.3737  0.0680
11346WAT    EPW46092   4.635   5.436   1.359 -0.1290  0.1849 -0.4748
11347WAT      O46093   1.619   5.926   5.623  0.2863  0.4364 -0.4739
11347WAT     H146094   1.569   5.856   5.634 -0.0172  0.9438  1.9975
11347WAT     H246095   1.600   5.952   5.542 -1.6048 -0.7832 -0.4896
11347WAT    EPW46096   1.609   5.920   5.613 -0.1066  0.2284 -0.6096
11348WAT      O46097   2.178   4.445   4.686 -0.4481  0.1699 -0.2101
11348WAT     H146098   2.151   4.480   4.761 -2.8384 -1.7073 -0.0792
11348WAT     H246099   2.199   4.364   4.707 -1.1984 -0.4153 -1.5558
11348WAT    EPW46100   2.177   4.438   4.700 -0.3436  0.0204 -0.1015
11349WAT      O46101   7.016   5.396   1.253  0.6330 -0.3878 -0.1059
11349WAT     H146102   7.029   5.331   1.197  0.7064 -1.6001  1.2728
11349WAT     H246103   7.055   5.369   1.326 -1.3930  0.1099  1.2547
11349WAT    EPW46104   7.024   5.383   1.255 -0.5516  0.5469 -0.1976
11350WAT      O46105   7.159   4.957   6.340  0.3146  0.3141  0.3617
11350WAT     H146106   7.142   4.950   6.254  2.1217  0.3056 -0.0312
11350WAT     H246107   7.083   4.938   6.377 -0.6192  0.6713 -1.2476
11350WAT    EPW46108   7.145   4.953   6.333  0.4384 -0.1390  1.0213
11351WAT      O46109   6.449   4.897   6.455 -0.2316  0.1710  0.6085
11351WAT     H146110   6.506   4.947   6.412  1.5747 -1.4376  0.9798
11351WAT     H246111   6.499   4.836   6.493 -2.2506 -1.7522  0.4260
11351WAT    EPW46112   6.465   4.895   6.454  0.6524 -0.1276  0.2459
11352WAT      O46113   2.023   3.348   3.613 -0.1824  0.3277  0.1717
11352WAT     H146114   1.999   3.271   3.580  2.2867 -0.9541  1.0711
11352WAT     H246115   2.075   3.381   3.551  0.1379  0.4642  0.5111
11352WAT    EPW46116   2.027   3.341   3.599 -0.5311 -0.4737  0.0584
11353WAT      O46117   1.848   4.866   1.552  0.0194  0.1645 -0.0412
11353WAT     H146118   1.792   4.897   1.611  1.2750  1.6377  0.4251
11353WAT     H246119   1.796   4.838   1.487 -1.3099 -0.0894  1.0928
11353WAT    EPW46120   1.832   4.866   1.551 -0.0752  0.9107  0.0121
11354WAT      O46121   7.636   0.979   1.741 -0.8902 -0.1433 -0.0222
11354WAT     H146122   7.652   1.040   1.802 -2.8982 -1.4322  1.9697
11354WAT     H246123   7.550   0.968   1.746 -0.7808 -2.0543 -1.3842
11354WAT    EPW46124   7.626   0.987   1.751  0.2280  0.0969 -0.1018
11355WAT      O46125   7.543   0.382   5.623  0.8010 -0.2720 -0.1887
11355WAT     H146126   7.481   0.354   5.678  1.8234 -0.1103  1.1102
11355WAT     H246127   7.498   0.409   5.553 -0.5310 -0.8119  0.4233
11355WAT    EPW46128   7.527   0.382   5.621 -0.2956 -0.0244 -0.0739
11356WAT      O46129   7.568   1.637   2.385  0.1185 -0.2075  0.5898
11356WAT     H146130   7.576   1.613   2.301 -0.7303  0.4591  0.3030
11356WAT     H246131   7.650   1.658   2.408  0.2375  0.4218 -0.3393
11356WAT    EPW46132   7.582   1.637   2.376 -0.0704 -0.2793 -0.1162
11357WAT      O46133   6.968   1.469   4.827 -0.2277 -0.4557 -0.3355
11357WAT     H146134   6.958   1.432   4.905 -0.8665 -1.4770 -0.8743
11357WAT     H246135   7.055   1.472   4.817 -0.1528 -1.3948 -0.0666
11357WAT    EPW46136   6.979   1.464   4.837 -0.3537 -0.1005 -0.1564
11358WAT      O46137   1.368   2.473   0.652  0.3308  0.1429  0.1924
11358WAT     H146138   1.368   2.405   0.707  1.4673 -0.9283 -1.0251
11358WAT     H246139   1.289   2.470   0.616 -0.1279  0.3505  1.1558
11358WAT    EPW46140   1.356   2.462   0.655 -0.1033 -0.5024  0.7742
11359WAT      O46141   0.455   2.529   5.397 -0.3348  0.4124  0.2642
11359WAT     H146142   0.431   2.597   5.446 -0.7866  0.5949 -0.2042
11359WAT     H246143   0.380   2.488   5.381  0.0596 -0.9603  1.6226
11359WAT    EPW46144   0.440   2.533   5.402  0.3844 -0.6833  0.4001
11360WAT      O46145   2.231   2.617   4.125  0.1940 -0.4710 -0.0483
11360WAT     H146146   2.310   2.579   4.129 -0.9668 -2.9386  1.5193
11360WAT     H246147   2.217   2.642   4.207 -1.3388 -1.6351  0.0728
11360WAT    EPW46148   2.241   2.615   4.138  0.1402  0.3333 -0.2909
11361WAT      O46149   1.134   4.251   7.238  0.2243 -0.9191 -0.4163
11361WAT     H146150   1.212   4.215   7.217  1.5680  1.6596 -0.2049
11361WAT     H246151   1.151   4.296   7.310 -1.3316  0.2431 -0.7323
11361WAT    EPW46152   1.148   4.252   7.245 -0.1846 -0.0796 -0.1696
11362WAT      O46153   3.310   6.853   3.528  0.2659  0.0611 -0.5156
11362WAT     H146154   3.229   6.839   3.498  0.2163  0.0180 -0.3583
11362WAT     H246155   3.319   6.939   3.521 -0.0215  0.1424  0.0536
11362WAT    EPW46156   3.299   6.864   3.522  0.6232  0.0736  0.1268
11363WAT      O46157   3.793   1.715   0.932  0.0547 -0.4068 -0.3258
11363WAT     H146158   3.746   1.736   1.002 -0.4072 -1.1573 -0.3971
11363WAT     H246159   3.863   1.765   0.939 -1.2174  1.5259 -0.7719
11363WAT    EPW46160   3.796   1.725   0.943 -0.2770 -0.6327  0.5321
11364WAT      O46161   1.499   5.288   7.491 -0.4962 -0.4392 -0.3283
11364WAT     H146162   1.466   5.323   7.418  0.0957 -1.9116 -1.3521
11364WAT     H246163   1.450   5.322   7.555  0.4216  2.7640 -1.1212
11364WAT    EPW46164   1.487   5.298   7.490 -0.1373  0.5768  0.6665
11365WAT      O46165   4.447   4.237   7.405 -0.6081  0.2339 -0.1204
11365WAT     H146166   4.362   4.222   7.416 -0.5174 -0.1605  0.0571
11365WAT     H246167   4.473   4.267   7.483 -0.6212  0.5278 -0.2286
11365WAT    EPW46168   4.438   4.239   7.418 -0.1055  0.1495  0.3580
11366WAT      O46169   5.358   1.407   1.768  0.4922 -0.3169  0.2937
11366WAT     H146170   5.387   1.373   1.693  0.9394  0.3148  0.1685
11366WAT     H246171   5.305   1.472   1.743  0.2512 -0.4241  0.5236
11366WAT    EPW46172   5.355   1.412   1.754  0.0105  0.1878  0.1390
11367WAT      O46173   4.495   7.559   2.260  0.0925 -0.0545  0.3817
11367WAT     H146174   4.474   7.550   2.176 -1.9395  2.0718  0.5697
11367WAT     H246175   4.575   7.595   2.257 -0.3132  0.8230 -0.6919
11367WAT    EPW46176   4.504   7.563   2.247 -0.4487 -0.5175  0.3699
11368WAT      O46177   1.371   5.833   0.819 -0.2422 -0.1244 -0.2897
11368WAT     H146178   1.385   5.760   0.773  1.8010 -0.1072  0.1738
11368WAT     H246179   1.396   5.811   0.900  0.7772  1.1709 -0.2212
11368WAT    EPW46180   1.377   5.819   0.824 -0.0479 -0.4896 -0.2559
11369WAT      O46181   2.828   6.368   4.577  0.3440 -0.7438 -0.2105
11369WAT     H146182   2.795   6.288   4.569  1.5698 -1.2821 -0.0036
11369WAT     H246183   2.850   6.390   4.495 -0.2077 -0.5065 -0.3023
11369WAT    EPW46184   2.826   6.360   4.564  0.2218 -0.3617  0.2529
11370WAT      O46185   3.094   2.764   6.149 -0.0846  0.5543 -0.8380
11370WAT     H146186   3.103   2.806   6.224  0.5188  0.6879 -0.9787
11370WAT     H246187   3.014   2.728   6.154  0.3662 -0.3310  0.3136
11370WAT    EPW46188   3.083   2.765   6.161 -0.3119  0.0623 -0.3807
11371WAT      O46189   7.603   4.068   4.156 -0.4314 -0.2567 -0.4197
11371WAT     H146190   7.615   4.119   4.086 -2.2551 -0.5619 -1.0188
11371WAT     H246191   7.676   4.020   4.160  0.9864  1.7803 -0.3167
11371WAT    EPW46192   7.615   4.069   4.146  0.1560  0.4138  0.7129
11372WAT      O46193   1.687   2.999   6.274 -0.1104  0.3183  0.3244
11372WAT     H146194   1.757   2.989   6.325  1.4956  0.8912 -1.6382
11372WAT     H246195   1.665   2.918   6.252  0.9096  0.1861 -0.2545
11372WAT    EPW46196   1.694   2.986   6.278 -0.6645 -0.1137  0.5039
11373WAT      O46197   2.132   0.585   3.942  0.7410  0.5224 -0.2991
11373WAT     H146198   2.067   0.551   3.990  1.1208  0.9075  0.5156
11373WAT     H246199   2.097   0.594   3.863  0.3167 -0.7946 -0.2810
11373WAT    EPW46200   2.117   0.581   3.937  0.6086  0.5532  0.0802
11374WAT      O46201   0.693   4.568   4.385  1.1614  0.5221 -0.2721
11374WAT     H146202   0.726   4.487   4.388 -1.6213 -0.7017  1.8751
11374WAT     H246203   0.635   4.564   4.320  1.2674  0.9211 -0.3957
11374WAT    EPW46204   0.689   4.555   4.375 -0.0891  0.2197 -0.2588
11375WAT      O46205   7.296   1.407   2.504  0.8292  0.0559 -0.4894
11375WAT     H146206   7.257   1.339   2.542  0.6501  0.8388  0.7923
11375WAT     H246207   7.371   1.374   2.475  0.4569 -0.8284 -0.4898
11375WAT    EPW46208   7.301   1.392   2.505 -0.1710 -0.0554  0.9295
11376WAT      O46209   1.769   0.596   2.723  0.0212 -0.8377 -0.4988
11376WAT     H146210   1.830   0.539   2.749  1.4506  0.0654 -1.6993
11376WAT     H246211   1.797   0.622   2.645  0.0969  2.3717  0.4379
11376WAT    EPW46212   1.782   0.591   2.716  0.4485  0.0519  0.5840
11377WAT      O46213   3.884   6.324   6.669  0.3007  0.2537  0.3608
11377WAT     H146214   3.860   6.352   6.748 -3.1035  1.3679 -0.8940
11377WAT     H246215   3.926   6.250   6.686 -2.4504 -0.9010  3.1779
11377WAT    EPW46216   3.886   6.318   6.684 -0.2559  0.7676 -0.5081
11378WAT      O46217   6.792   5.831   6.310 -0.0906  0.6143 -0.0994
11378WAT     H146218   6.707   5.809   6.315  0.0221  0.2503  0.3127
11378WAT     H246219   6.791   5.906   6.266 -0.8978  2.1924  2.3756
11378WAT    EPW46220   6.779   5.838   6.304  0.1325 -0.7217  0.4241
11379WAT      O46221   7.553   2.853   2.011 -0.5274 -0.1831  0.2424
11379WAT     H146222   7.498   2.905   1.968  1.3649  0.4739 -1.5777
11379WAT     H246223   7.531   2.772   1.985 -1.2302 -0.0092  0.2985
11379WAT    EPW46224   7.542   2.848   2.001 -0.2461  0.5648  0.1148
11380WAT      O46225   4.209   6.284   3.813 -0.3449  0.0830  0.3350
11380WAT     H146226   4.250   6.225   3.863 -1.1119 -0.6198  0.1496
11380WAT     H246227   4.274   6.336   3.786 -0.1186  2.3091  4.3361
11380WAT    EPW46228   4.225   6.283   3.817  0.2377 -0.0057 -0.4185
11381WAT      O46229   5.975   1.478   2.309 -0.3121  0.2773 -0.3121
11381WAT     H146230   5.940   1.537   2.254  1.9264  0.2621 -1.8914
11381WAT     H246231   6.013   1.421   2.256  0.2538 -0.8719  1.2612
11381WAT    EPW46232   5.976   1.478   2.293  0.4347 -0.6127  0.5968
11382WAT      O46233   1.964   4.760   2.585  0.0607  0.8464  0.2989
11382WAT     H146234   2.044   4.771   2.616  0.3577 -0.2392 -0.0236
11382WAT     H246235   1.919   4.729   2.653  0.1554  0.5593  0.2313
11382WAT    EPW46236   1.969   4.757   2.599 -0.3973  0.9890 -0.0826
11383WAT      O46237   1.975   5.500   0.739 -0.0263 -0.4310  0.2106
11383WAT     H146238   2.062   5.496   0.745  0.1273  0.9527 -0.5550
11383WAT     H246239   1.960   5.586   0.730 -1.5132 -0.5983  0.8596
11383WAT    EPW46240   1.986   5.512   0.739 -0.0150 -0.0772  0.4172
11384WAT      O46241   4.086   4.857   3.706  0.1317  0.4927 -0.1018
11384WAT     H146242   4.162   4.816   3.693 -0.8602 -1.2656 -0.7285
11384WAT     H246243   4.061   4.828   3.785  0.3036  1.4434  0.3197
11384WAT    EPW46244   4.094   4.847   3.716  0.2794 -0.1326 -0.4284
11385WAT      O46245   1.551   2.954   3.532  0.1385 -0.4433 -0.0840
11385WAT     H146246   1.490   3.001   3.573  1.5629  2.9108 -1.3915
11385WAT     H246247   1.621   2.961   3.584 -0.0765 -2.9800  0.6716
11385WAT    EPW46248   1.553   2.962   3.546  0.5906  0.3394 -0.0244
11386WAT      O46249   0.424   1.691   7.146  0.5284  0.1264  0.0549
11386WAT     H146250   0.365   1.718   7.204  0.8750 -0.6315  0.7764
11386WAT     H246251   0.500   1.701   7.187  0.8729  0.6528 -0.6944
11386WAT    EPW46252   0.427   1.696   7.160 -0.2096  0.1690 -0.1365
11387WAT      O46253   6.078   2.075   4.014  0.1905  0.0790  0.2047
11387WAT     H146254   5.992   2.067   4.016  0.1107  0.6833 -0.3650
11387WAT     H246255   6.095   2.092   3.931  1.0021 -1.3914  0.0285
11387WAT    EPW46256   6.068   2.076   4.002 -0.0876 -0.0183  0.6027
11388WAT      O46257   6.172   7.314   1.161  0.2438  0.3417  0.8937
11388WAT     H146258   6.102   7.263   1.148  0.6860 -0.7098  2.4024
11388WAT     H246259   6.139   7.388   1.192 -0.3004  0.4276  0.1359
11388WAT    EPW46260   6.157   7.317   1.163  0.5249 -0.9365  0.2313
11389WAT      O46261   3.335   0.367   6.799  0.0274  0.4015  0.6906
11389WAT     H146262   3.404   0.366   6.746 -1.0376  1.8226 -0.8172
11389WAT     H246263   3.315   0.282   6.808  1.7559 -0.0198  0.9324
11389WAT    EPW46264   3.342   0.354   6.792  0.2587  0.8170  0.2088
11390WAT      O46265   0.312   5.242  -0.008 -0.2944  0.8436 -0.2320
11390WAT     H146266   0.275   5.314  -0.041 -1.0553  0.8022  0.4922
11390WAT     H246267   0.283   5.240   0.075  2.5234  1.6201  0.8736
11390WAT    EPW46268   0.302   5.252  -0.000 -0.3175 -0.5259  0.0660
11391WAT      O46269   6.117   1.258   2.984  0.4349  0.0309 -0.4210
11391WAT     H146270   6.046   1.297   3.017 -0.3953 -1.1408 -0.7125
11391WAT     H246271   6.153   1.219   3.053 -0.1134 -0.6769 -0.5215
11391WAT    EPW46272   6.112   1.258   2.999  0.1623  0.7772  0.3272
11392WAT      O46273   3.228   1.774   7.241  0.4303 -0.2775  0.2085
11392WAT     H146274   3.146   1.767   7.269 -0.1086  0.2244 -1.1292
11392WAT     H246275   3.225   1.741   7.160  1.7324 -1.0112  0.4400
11392WAT    EPW46276   3.215   1.768   7.233  0.5122  0.7273 -0.1839
11393WAT      O46277   0.860   0.090   1.230 -0.5944 -0.5719 -0.1085
11393WAT     H146278   0.790   0.043   1.252 -1.1063 -1.0419 -2.4904
11393WAT     H246279   0.917   0.031   1.201  0.1808 -0.0284  0.2382
11393WAT    EPW46280   0.858   0.075   1.229  0.3594  0.1120  0.3472
11394WAT      O46281   0.421   1.297   4.193 -0.0175 -0.0882  0.1439
11394WAT     H146282   0.442   1.269   4.113 -1.2390  1.8352 -0.9267
11394WAT     H246283   0.350   1.346   4.179 -0.7648 -0.3906  2.5519
11394WAT    EPW46284   0.414   1.300   4.179  0.1865 -0.4859  0.2975
11395WAT      O46285   4.438   5.622   6.124  0.6342  0.1464  0.1813
11395WAT     H146286   4.359   5.658   6.113  0.6809  0.4798  0.9056
11395WAT     H246287   4.468   5.660   6.197 -0.0534 -2.6577  2.0732
11395WAT    EPW46288   4.431   5.633   6.133  0.0798 -0.0108  0.2233
11396WAT      O46289   4.058   7.153   3.961  0.2715  0.1230  0.4082
11396WAT     H146290   4.007   7.121   3.899  2.2901  1.3982 -2.0901
11396WAT     H246291   4.002   7.183   4.020 -1.7328 -1.6353 -0.4669
11396WAT    EPW46292   4.042   7.153   3.961 -0.8938  0.7695 -0.2512
11397WAT      O46293   1.360   2.136   1.263 -0.1030  0.7171  0.1841
11397WAT     H146294   1.436   2.110   1.230  0.7028  2.4667  0.5469
11397WAT     H246295   1.310   2.147   1.192  0.3694  0.6887 -0.1582
11397WAT    EPW46296   1.364   2.134   1.248  0.0198  0.2102 -0.1068
11398WAT      O46297   4.187   3.517   6.139 -0.1920 -0.3826 -0.1330
11398WAT     H146298   4.118   3.569   6.148  0.7960  0.9924 -0.0392
11398WAT     H246299   4.255   3.571   6.153  0.9031 -1.6352 -0.3764
11398WAT    EPW46300   4.187   3.533   6.143  0.4450 -0.9752  0.0039
11399WAT      O46301   7.382   5.283   1.299 -1.1153  0.0412  0.3098
11399WAT     H146302   7.379   5.322   1.221  0.1591 -0.7538 -0.1541
11399WAT     H246303   7.366   5.348   1.354 -2.3113  0.5715 -0.6035
11399WAT    EPW46304   7.379   5.298   1.295  0.7337 -0.0767  0.1769
11400WAT      O46305   5.826   0.276   2.945 -0.3106  0.5493  0.1187
11400WAT     H146306   5.794   0.319   2.876  1.0778  1.5616  0.0658
11400WAT     H246307   5.758   0.230   2.974 -0.9542  0.1579 -1.8703
11400WAT    EPW46308   5.811   0.275   2.939 -0.2351 -0.0600  0.1979
11401WAT      O46309   1.765   6.559   5.308  0.0531  0.2205 -0.1465
11401WAT     H146310   1.815   6.488   5.308  1.2537  1.0241 -0.4395
11401WAT     H246311   1.694   6.534   5.264  0.6706 -0.6615 -0.6873
11401WAT    EPW46312   1.762   6.545   5.301 -0.5209  0.0756  0.2543
11402WAT      O46313   7.409   6.987   1.749  0.2867 -0.2114  0.4307
11402WAT     H146314   7.378   6.907   1.736  0.9386 -0.6314  1.3580
11402WAT     H246315   7.471   6.995   1.689  0.1000 -0.3279  0.2195
11402WAT    EPW46316   7.414   6.977   1.738 -0.4247 -0.2144  0.1831
11403WAT      O46317   6.262   7.476   2.468 -0.1200  0.4136 -0.1916
11403WAT     H146318   6.238   7.497   2.550 -1.2631 -0.7092 -0.2096
11403WAT     H246319   6.347   7.458   2.475 -0.3837 -0.4936  0.9409
11403WAT    EPW46320   6.271   7.476   2.481 -0.0940  0.1947 -0.0332
11404WAT      O46321   1.680   6.853   3.679  0.6185  0.1777 -0.0394
11404WAT     H146322   1.662   6.890   3.756 -0.2880 -1.2876  0.5014
11404WAT     H246323   1.711   6.775   3.701 -0.0146 -0.4091 -1.1565
11404WAT    EPW46324   1.682   6.847   3.694 -0.1164 -0.1352 -0.1885
11405WAT      O46325   3.637   0.473   3.897 -0.1926 -0.2015 -0.4889
11405WAT     H146326   3.696   0.488   3.959  0.9866 -0.0331 -1.6143
11405WAT     H246327   3.573   0.431   3.940  1.8408 -2.7829  0.3201
11405WAT    EPW46328   3.636   0.469   3.913  0.2459  0.6081 -0.4239
11406WAT      O46329   5.618   1.072   6.331 -0.1705 -0.4244 -0.0477
11406WAT     H146330   5.604   1.115   6.257 -1.3240 -0.5857  0.0541
11406WAT     H246331   5.572   1.116   6.390  2.5311  1.0734  1.1150
11406WAT    EPW46332   5.609   1.085   6.329  0.2341 -0.6052  0.3561
11407WAT      O46333   5.300   3.861   7.278  0.1871  0.2420  0.7133
11407WAT     H146334   5.323   3.809   7.211 -0.0815  0.1168  0.7158
11407WAT     H246335   5.217   3.882   7.259  0.4318  1.0227  0.4902
11407WAT    EPW46336   5.291   3.856   7.265  0.7482  0.4582 -0.1384
11408WAT      O46337   5.266   0.469   2.136 -0.2653  0.1842 -0.3903
11408WAT     H146338   5.243   0.548   2.166 -0.2046  0.2831 -0.6014
11408WAT     H246339   5.267   0.480   2.050 -0.5137 -0.1192 -0.4325
11408WAT    EPW46340   5.262   0.483   2.128 -0.0938  0.1952 -0.3881
11409WAT      O46341   4.734   1.005   3.187 -0.2629  0.3982  0.9661
11409WAT     H146342   4.651   0.994   3.211 -0.8004  1.6528 -0.1987
11409WAT     H246343   4.733   1.079   3.142  1.1975 -0.3793 -0.4562
11409WAT    EPW46344   4.722   1.014   3.184  0.3081 -0.4024  0.4342
11410WAT      O46345   1.788   5.789   4.062  0.5018 -0.5779  0.4180
11410WAT     H146346   1.721   5.757   4.017 -0.7259  2.9430 -0.5738
11410WAT     H246347   1.857   5.771   4.011 -0.2511 -0.6028 -0.6274
11410WAT    EPW46348   1.788   5.781   4.048  0.0863  0.0384  0.1152
11411WAT      O46349   5.866   2.025   6.737 -0.1278 -0.5189  0.1339
11411WAT     H146350   5.787   2.058   6.753 -0.1914 -1.0444  0.9657
11411WAT     H246351   5.860   1.996   6.655 -0.9799 -1.0666  0.3776
11411WAT    EPW46352   5.853   2.025   6.727  0.5186 -0.1695  0.4607
11412WAT      O46353   0.150   6.475   1.143 -0.1576 -0.1348 -0.2539
11412WAT     H146354   0.225   6.513   1.165  0.0881 -0.3139 -0.7709
11412WAT     H246355   0.164   6.390   1.158 -1.0144  0.0238  1.7886
11412WAT    EPW46356   0.163   6.468   1.149  0.3766  0.2780 -0.1740
11413WAT      O46357   7.380   3.673   2.987  0.0097  0.0910  0.7099
11413WAT     H146358   7.416   3.597   2.962  0.8542  0.8919 -0.6159
11413WAT     H246359   7.440   3.708   3.040 -0.6664 -0.4343  1.8607
11413WAT    EPW46360   7.394   3.667   2.991 -0.1675  0.3870  0.2050
11414WAT      O46361   6.703   3.786   0.441 -0.4875 -0.3916 -0.6017
11414WAT     H146362   6.618   3.770   0.447 -0.1762 -1.8795  0.3574
11414WAT     H246363   6.711   3.866   0.476 -1.3991 -0.5609  0.0325
11414WAT    EPW46364   6.692   3.796   0.447  0.2255  0.0684  0.4556
11415WAT      O46365   3.878   3.460   2.356 -0.2913 -0.7153  0.3476
11415WAT     H146366   3.841   3.490   2.284 -1.3690 -0.0695  1.1413
11415WAT     H246367   3.945   3.412   2.327  0.4719  1.0729 -1.0233
11415WAT    EPW46368   3.883   3.458   2.341 -0.3798 -0.0056  0.0696
11416WAT      O46369   4.843   1.758   4.325 -0.3199 -0.3712 -0.3135
11416WAT     H146370   4.785   1.797   4.378 -0.9029 -1.3657 -0.2104
11416WAT     H246371   4.803   1.685   4.301  0.5624 -0.6610 -0.9263
11416WAT    EPW46372   4.828   1.753   4.329 -0.3209  0.5581  0.6299
11417WAT      O46373   7.532   2.338   2.472  0.2484  0.0283 -0.1893
11417WAT     H146374   7.548   2.388   2.403  0.1093 -1.3293 -1.2560
11417WAT     H246375   7.587   2.271   2.462  0.8588  0.2249  1.5120
11417WAT    EPW46376   7.543   2.335   2.460 -0.5688 -0.6295  1.3533
11418WAT      O46377   0.040   0.079   0.878  0.3690  0.2056 -0.0998
11418WAT     H146378  -0.019   0.104   0.937  2.0275  3.2046  0.5145
11418WAT     H246379   0.055  -0.004   0.898 -1.2483  0.2922  1.8064
11418WAT    EPW46380   0.034   0.071   0.889  0.1304  0.6623  0.6379
11419WAT      O46381   1.544   5.808   1.041  0.3453 -0.0844 -0.3619
11419WAT     H146382   1.550   5.889   1.011 -1.6380  0.1668 -0.2109
11419WAT     H246383   1.546   5.817   1.128 -1.6741  0.0532 -0.2824
11419WAT    EPW46384   1.545   5.821   1.049  0.2285  0.4056  0.0815
11420WAT      O46385   0.370   1.415   0.332 -0.2546  0.2444 -0.3614
11420WAT     H146386   0.284   1.423   0.345 -0.1322 -1.2254  1.8337
11420WAT     H246387   0.381   1.332   0.310  0.6054  0.4821 -0.9082
11420WAT    EPW46388   0.359   1.404   0.330  0.4296  0.0314  0.9288
11421WAT      O46389   4.932   4.396   3.544  0.1256 -0.9289 -0.2665
11421WAT     H146390   4.956   4.468   3.587  0.7152 -0.8888 -0.6580
11421WAT     H246391   4.853   4.379   3.577 -0.6867  0.7397 -1.2162
11421WAT    EPW46392   4.924   4.404   3.556  0.2042  0.6789 -0.7111
11422WAT      O46393   1.693   1.701   4.217  0.2099  0.2333 -0.3181
11422WAT     H146394   1.754   1.638   4.220  0.1047  0.1090 -0.7365
11422WAT     H246395   1.654   1.694   4.295  1.1265  0.7238  0.2097
11422WAT    EPW46396   1.697   1.691   4.229 -0.0116 -0.1955  0.3538
11423WAT      O46397   3.990   2.980   0.578 -0.5190  0.5785  0.8542
11423WAT     H146398   4.064   3.022   0.598 -0.9481  1.5114  0.5305
11423WAT     H246399   3.960   2.954   0.656 -0.5399  1.3879  1.1236
11423WAT    EPW46400   3.996   2.982   0.593  0.1724 -0.1550  0.2128
11424WAT      O46401   1.878   2.206   3.540 -0.2304  0.1184  0.0428
11424WAT     H146402   1.855   2.261   3.603  0.3268  0.6622 -0.2078
11424WAT     H246403   1.951   2.242   3.507 -0.5326 -0.1222 -0.9360
11424WAT    EPW46404   1.886   2.219   3.544 -0.4464 -0.2107 -0.2588
11425WAT      O46405   3.445   7.516   1.235  0.2836  0.3013  0.2116
11425WAT     H146406   3.497   7.586   1.237  1.2092 -0.1897 -2.4616
11425WAT     H246407   3.501   7.449   1.235 -0.4624 -0.3339  0.1719
11425WAT    EPW46408   3.461   7.517   1.235 -0.2835 -0.0381 -0.4991
11426WAT      O46409   6.668   2.098   7.338 -0.3099 -0.5992 -0.6571
11426WAT     H146410   6.742   2.141   7.354  0.3707 -1.5493 -1.1656
11426WAT     H246411   6.657   2.048   7.408  0.1746 -1.3263 -1.0887
11426WAT    EPW46412   6.677   2.097   7.351 -0.0414 -0.1503 -0.3366
11427WAT      O46413   7.081   5.164   3.028  0.2933  0.2973  0.2838
11427WAT     H146414   7.133   5.177   3.097 -1.6827  2.3553  1.5254
11427WAT     H246415   7.114   5.216   2.967 -0.3183  1.6889  1.1015
11427WAT    EPW46416   7.093   5.173   3.029  0.2829  0.0571 -0.2119
11428WAT      O46417   7.628   7.423   7.085  0.2544  0.0015  0.5984
11428WAT     H146418   7.579   7.422   7.158 -2.0449 -0.3317 -0.8588
11428WAT     H246419   7.679   7.353   7.094 -1.2157 -1.0477  1.1205
11428WAT    EPW46420   7.628   7.413   7.097 -0.5931  0.2736  0.2694
11429WAT      O46421   4.774   0.731   0.281 -0.7392 -0.2645 -0.1655
11429WAT     H146422   4.769   0.657   0.236  1.5607 -0.1436 -0.7362
11429WAT     H246423   4.750   0.792   0.223  0.3538 -0.2935 -0.6626
11429WAT    EPW46424   4.770   0.729   0.266 -0.0318 -0.3392  0.0263
11430WAT      O46425   1.207   2.281   3.410  0.1518 -0.5258 -0.9798
11430WAT     H146426   1.271   2.269   3.352 -0.7597 -2.7432 -1.6530
11430WAT     H246427   1.151   2.333   3.368 -0.0840 -1.4000 -1.7973
11430WAT    EPW46428   1.209   2.287   3.395 -0.1404  0.1795  0.4590
11431WAT      O46429   3.293   6.359   6.482  0.3980  0.5786  0.2574
11431WAT     H146430   3.292   6.446   6.481 -0.7893  0.6569  2.1600
11431WAT     H246431   3.321   6.340   6.563 -1.4271 -0.7229  0.6553
11431WAT    EPW46432   3.297   6.369   6.494 -0.4564 -0.3128  0.1649
11432WAT      O46433   5.479   0.473   7.428  0.0782 -0.0369  0.0479
11432WAT     H146434   5.462   0.554   7.456  0.7385 -0.1960  0.9927
11432WAT     H246435   5.560   0.459   7.457  0.7352 -0.3323 -1.7912
11432WAT    EPW46436   5.489   0.483   7.437 -0.0839 -0.5747  0.2615
11433WAT      O46437   7.177   4.884   6.667 -0.2308 -0.2089 -0.2900
11433WAT     H146438   7.126   4.895   6.597 -1.1121 -0.1743  0.3406
11433WAT     H246439   7.215   4.962   6.677 -2.3054  0.7172  0.9478
11433WAT    EPW46440   7.175   4.897   6.658 -0.0509 -0.1259 -0.4430
11434WAT      O46441   2.394   4.168   0.241  0.6876  0.3977  0.4530
11434WAT     H146442   2.450   4.150   0.306  1.2877  0.8902  0.0847
11434WAT     H246443   2.438   4.145   0.169 -0.1886 -0.7024  0.2266
11434WAT    EPW46444   2.409   4.162   0.240 -0.5368 -0.0239 -0.4094
11435WAT      O46445   5.553   2.180   7.419  0.1727 -0.1022 -0.1413
11435WAT     H146446   5.535   2.102   7.386  3.4209 -1.0546 -0.0520
11435WAT     H246447   5.640   2.187   7.408  0.0495  3.4340  0.0006
11435WAT    EPW46448   5.563   2.170   7.413  0.3833  0.3532  0.3390
11436WAT      O46449   4.781   6.450   7.579  0.6042 -0.7514 -0.0616
11436WAT     H146450   4.779   6.411   7.656  1.2415 -2.2887 -0.7711
11436WAT     H246451   4.846   6.409   7.537  0.8811  0.6506 -1.0963
11436WAT    EPW46452   4.791   6.438   7.584  0.3803 -0.2222  0.0462
11437WAT      O46453   2.939   4.211   3.129  0.4524 -0.3653  0.0206
11437WAT     H146454   2.981   4.250   3.063 -0.1415  0.6205  0.2050
11437WAT     H246455   2.993   4.146   3.151  2.0848  1.0229  0.4541
11437WAT    EPW46456   2.953   4.207   3.123 -0.0374  0.3378 -0.6912
11438WAT      O46457   7.524   3.701   1.927  0.1815  0.1254  1.2318
11438WAT     H146458   7.463   3.640   1.918  1.7388 -1.4798  0.8273
11438WAT     H246459   7.517   3.748   1.854  0.6191 -1.2467  0.2577
11438WAT    EPW46460   7.514   3.699   1.915 -0.5171  0.2015  0.0560
11439WAT      O46461   5.148   0.549   2.753  0.1516 -0.5811 -0.5701
11439WAT     H146462   5.116   0.629   2.766  0.0538 -0.6905 -0.1219
11439WAT     H246463   5.135   0.509   2.830 -2.3209 -1.9362 -1.5842
11439WAT    EPW46464   5.142   0.555   2.767  0.5396  0.0687  0.2052
11440WAT      O46465   0.128   7.186   6.992 -0.4120 -0.2133  0.0816
11440WAT     H146466   0.084   7.111   6.992  0.0655 -0.5177 -0.9047
11440WAT     H246467   0.114   7.218   6.912  0.5280  0.0595  0.0119
11440WAT    EPW46468   0.120   7.180   6.980  0.6162 -0.6532 -0.1983
11441WAT      O46469   0.743   1.919   4.878 -0.1140  0.6846  0.3764
11441WAT     H146470   0.790   1.980   4.919 -0.3872  0.1341  1.5550
11441WAT     H246471   0.665   1.957   4.869  0.0837  0.9873 -0.0857
11441WAT    EPW46472   0.738   1.934   4.883  0.3482 -0.6479 -0.1513
11442WAT      O46473   1.316   1.501   5.539 -0.0505  0.3950 -0.1844
11442WAT     H146474   1.248   1.480   5.489 -1.1046  0.7821  1.0503
11442WAT     H246475   1.296   1.580   5.570  0.7832  0.3525  0.5140
11442WAT    EPW46476   1.303   1.510   5.536 -0.2713  0.0570  0.0027
11443WAT      O46477   5.475   0.663   4.036 -0.0594  0.4454 -0.2847
11443WAT     H146478   5.490   0.730   3.982 -2.4054  1.9877  0.7924
11443WAT     H246479   5.509   0.689   4.111 -0.6117  0.2270  0.0443
11443WAT    EPW46480   5.482   0.677   4.039 -0.4793 -0.0992 -0.4694
11444WAT      O46481   3.426   7.305   5.430  0.3280  0.5858  0.2508
11444WAT     H146482   3.492   7.315   5.373 -0.0546  1.7151 -0.0339
11444WAT     H246483   3.455   7.244   5.485  0.7910 -0.4010 -1.0361
11444WAT    EPW46484   3.440   7.297   5.430  0.3742  0.0455 -0.3999
11445WAT      O46485   1.808   2.180   3.095  0.2810 -0.4707  0.0156
11445WAT     H146486   1.822   2.094   3.100  0.7861 -0.5413 -1.8542
11445WAT     H246487   1.776   2.200   3.174  0.3027 -2.3334  0.5510
11445WAT    EPW46488   1.805   2.170   3.107 -0.2747  0.4548  0.1191
11446WAT      O46489   0.774   2.880   6.814  0.0448 -0.1028  0.2280
11446WAT     H146490   0.787   2.945   6.871 -0.6067  1.2460 -1.0744
11446WAT     H246491   0.789   2.918   6.737  1.8260 -2.1070 -0.4984
11446WAT    EPW46492   0.778   2.895   6.811 -0.4305 -0.7632  0.0470
11447WAT      O46493   6.177   5.238   5.118 -0.1185  0.3452 -0.1752
11447WAT     H146494   6.165   5.215   5.035 -0.8025 -0.8164  0.2215
11447WAT     H246495   6.110   5.201   5.160  0.9762 -0.3233  1.0936
11447WAT    EPW46496   6.165   5.229   5.112  0.4200  0.4145 -0.4408
11448WAT      O46497   0.769   6.312   0.813 -0.0864 -0.6478  0.5471
11448WAT     H146498   0.708   6.372   0.797 -0.8305 -1.4935  0.1609
11448WAT     H246499   0.844   6.356   0.805 -0.6346  0.5790  1.7459
11448WAT    EPW46500   0.771   6.327   0.810 -0.0513  0.9009 -0.1309
11449WAT      O46501   3.230   5.584   0.559 -0.2725 -0.4376  0.3904
11449WAT     H146502   3.152   5.575   0.521  0.1769  0.2026 -0.7346
11449WAT     H246503   3.218   5.648   0.616 -0.3676  0.3170 -0.4454
11449WAT    EPW46504   3.217   5.592   0.562 -0.0481  0.5759 -0.5804
11450WAT      O46505   5.557   2.517   4.247 -0.2638 -0.1986 -0.3825
11450WAT     H146506   5.523   2.444   4.281 -0.6923  0.2504  0.1672
11450WAT     H246507   5.616   2.541   4.307 -0.6090  0.2772 -0.2284
11450WAT    EPW46508   5.561   2.510   4.261 -0.2533 -0.4492  0.3945
11451WAT      O46509   7.492   0.521   0.795 -0.8566 -0.2249  0.0679
11451WAT     H146510   7.491   0.492   0.712  1.3530  1.3018 -0.6031
11451WAT     H246511   7.449   0.597   0.791  0.9819  0.8655 -0.2100
11451WAT    EPW46512   7.486   0.528   0.782 -0.1704 -0.1260 -0.2908
11452WAT      O46513   1.532   4.601   3.875  0.5653 -0.4644 -0.4821
11452WAT     H146514   1.518   4.670   3.824 -0.6918  0.1410  0.6101
11452WAT     H246515   1.616   4.583   3.863  1.2015  1.8975 -0.0521
11452WAT    EPW46516   1.542   4.609   3.866 -0.7698 -0.2978 -0.1299
11453WAT      O46517   6.388   1.198   5.780  0.2632 -0.2422  0.1888
11453WAT     H146518   6.463   1.192   5.735  0.0829  2.9324 -0.8193
11453WAT     H246519   6.408   1.165   5.858  2.0954 -1.3141 -0.6582
11453WAT    EPW46520   6.402   1.192   5.785 -0.8845 -0.3431 -0.2443
11454WAT      O46521   7.214   1.382   3.990 -0.2212  0.2052 -0.1715
11454WAT     H146522   7.247   1.461   3.973 -0.7003  0.0137 -2.4321
11454WAT     H246523   7.255   1.330   3.933 -0.9653 -0.8925  0.2560
11454WAT    EPW46524   7.225   1.386   3.979  0.5966  0.4006  0.1204
11455WAT      O46525   4.615   6.390   0.967 -0.0621  0.4411 -0.5511
11455WAT     H146526   4.690   6.433   0.979 -0.5225  0.6181  2.2706
11455WAT     H246527   4.613   6.333   1.032 -1.4681 -0.9774 -1.7630
11455WAT    EPW46528   4.626   6.388   0.978 -0.0895  0.4159 -0.6329
11456WAT      O46529   4.071   5.275   0.425 -0.7064  0.3774 -0.0063
11456WAT     H146530   4.048   5.359   0.419 -1.1983  0.2415 -0.0255
11456WAT     H246531   4.079   5.262   0.511  0.4598  0.7321 -0.0455
11456WAT    EPW46532   4.069   5.286   0.437 -0.2058 -0.0505  0.0396
11457WAT      O46533   1.710   2.420   7.180 -0.1778 -0.4068 -0.0736
11457WAT     H146534   1.773   2.363   7.202 -0.6439 -1.0553 -0.3630
11457WAT     H246535   1.672   2.438   7.256  1.1289  0.9879  0.3109
11457WAT    EPW46536   1.714   2.414   7.195 -0.1563 -0.8007 -0.0511
11458WAT      O46537   3.090   0.168   4.618  0.1624  0.7945 -0.6730
11458WAT     H146538   3.020   0.203   4.655 -1.1541 -0.8671 -1.4982
11458WAT     H246539   3.156   0.197   4.667 -0.9778  3.0462 -0.3483
11458WAT    EPW46540   3.090   0.178   4.631  0.3730  0.5109 -0.3744
11459WAT      O46541   4.290   5.144   1.717 -0.2453 -0.0911 -0.7206
11459WAT     H146542   4.345   5.198   1.676 -2.2900  1.8464 -1.0789
11459WAT     H246543   4.239   5.115   1.652 -2.5441  1.8126  0.1007
11459WAT    EPW46544   4.291   5.148   1.701 -0.3432  0.6193 -0.5122
11460WAT      O46545   6.708   6.601   3.010  0.2489 -0.0089 -0.1153
11460WAT     H146546   6.736   6.640   2.938  2.3286 -1.5011 -0.2002
11460WAT     H246547   6.766   6.626   3.071 -0.1930 -0.5020  0.5260
11460WAT    EPW46548   6.720   6.611   3.009  0.0586  0.4107  0.0471
11461WAT      O46549   5.806   6.286   1.392 -0.3209  0.3539 -0.3540
11461WAT     H146550   5.838   6.327   1.321  0.2500  1.2259  0.3861
11461WAT     H246551   5.875   6.242   1.423  0.0703  1.7528  0.9008
11461WAT    EPW46552   5.821   6.286   1.386  0.0793 -0.2803 -0.1243
11462WAT      O46553   4.884   0.190   1.347  0.2205 -0.2444 -0.0662
11462WAT     H146554   4.801   0.163   1.348  0.3610 -1.0135 -2.3722
11462WAT     H246555   4.927   0.125   1.385 -0.2438  0.3669  1.5715
11462WAT    EPW46556   4.878   0.176   1.353 -0.1940  0.0096  0.1188
11463WAT      O46557   5.614   2.617   2.299 -0.2281 -1.1195 -0.6793
11463WAT     H146558   5.617   2.571   2.373 -0.7878 -0.6524 -0.3581
11463WAT     H246559   5.535   2.601   2.267 -0.0867 -1.1090 -1.0450
11463WAT    EPW46560   5.603   2.608   2.305  0.0693  0.2326 -0.1740
11464WAT      O46561   2.701   3.964   6.862 -0.7351  0.3638 -0.5793
11464WAT     H146562   2.669   4.012   6.796 -0.5518 -0.6520 -1.4564
11464WAT     H246563   2.719   3.888   6.823  1.6317  0.4973  0.1561
11464WAT    EPW46564   2.699   3.960   6.846  0.0975  0.7355  0.6052
11465WAT      O46565   7.147   6.824   6.953 -0.2524 -0.0734 -0.2433
11465WAT     H146566   7.161   6.871   6.881 -0.0329 -0.7399 -0.6498
11465WAT     H246567   7.088   6.765   6.928  0.6335 -1.0140 -0.2083
11465WAT    EPW46568   7.140   6.822   6.939  0.1264  0.1126 -0.4690
11466WAT      O46569   6.242   5.150   7.126  0.8931  0.1889  0.0697
11466WAT     H146570   6.227   5.078   7.080 -0.3476  0.1868  0.4294
11466WAT     H246571   6.265   5.209   7.066  1.9497 -0.4935 -0.2226
11466WAT    EPW46572   6.243   5.148   7.111 -0.1974 -0.3376 -0.2690
11467WAT      O46573   4.847   7.257   2.721 -0.0865 -0.3343  0.5138
11467WAT     H146574   4.915   7.265   2.667  0.5542 -0.9105  1.2153
11467WAT     H246575   4.788   7.214   2.674  0.2416 -0.3165  0.0809
11467WAT    EPW46576   4.848   7.252   2.706 -0.1126  0.2892 -0.0909
11468WAT      O46577   0.741   1.984   4.127  0.3532 -0.4733  0.1482
11468WAT     H146578   0.783   2.013   4.056  0.9260  0.5820  0.8896
11468WAT     H246579   0.698   2.054   4.156 -0.8939 -1.2157  0.1532
11468WAT    EPW46580   0.741   1.999   4.120  0.0810  0.1127  0.0979
11469WAT      O46581   5.466   1.355   2.197  0.0875 -0.1421  0.4336
11469WAT     H146582   5.444   1.439   2.192  0.3378 -0.0946 -0.0081
11469WAT     H246583   5.406   1.315   2.147  0.5744 -0.0938 -0.2101
11469WAT    EPW46584   5.454   1.361   2.189  0.1077 -0.7294 -0.2266
11470WAT      O46585   7.298   0.722   2.599  0.6672  0.3639 -0.0550
11470WAT     H146586   7.326   0.731   2.681 -2.6719 -2.8307  1.7453
11470WAT     H246587   7.269   0.801   2.578 -3.2565  0.4757  4.1540
11470WAT    EPW46588   7.298   0.735   2.608  0.0298  0.5383 -0.0631
11471WAT      O46589   3.617   6.333   6.592  0.0862  0.6205 -0.4866
11471WAT     H146590   3.618   6.418   6.571 -1.5048  0.1924 -2.7358
11471WAT     H246591   3.701   6.313   6.603  0.6157  2.1860 -1.3721
11471WAT    EPW46592   3.629   6.343   6.591  0.0055  0.0896  0.1221
11472WAT      O46593   6.194   1.794   6.821 -0.3108 -0.4171 -0.2451
11472WAT     H146594   6.142   1.724   6.823 -0.5552 -0.2842 -1.4843
11472WAT     H246595   6.169   1.840   6.891 -0.7564 -1.1212  0.0757
11472WAT    EPW46596   6.183   1.790   6.832  0.0023 -0.3461 -0.1569
11473WAT      O46597   6.272   2.209   6.245  0.4311  0.3086 -0.8716
11473WAT     H146598   6.227   2.140   6.217  1.2301 -1.9634  2.7333
11473WAT     H246599   6.234   2.230   6.321  2.2818  1.5797 -0.1985
11473WAT    EPW46600   6.260   2.202   6.252 -0.1796  0.2965 -0.3758
11474WAT      O46601   2.158   0.373   1.532 -0.0140  0.0052 -0.6908
11474WAT     H146602   2.088   0.340   1.571  1.7318 -2.2704  0.7797
11474WAT     H246603   2.158   0.456   1.557 -1.2791 -0.3572  0.6378
11474WAT    EPW46604   2.148   0.380   1.541 -0.0817 -0.0239 -0.0589
11475WAT      O46605   4.990   1.141   2.556  0.0790 -0.4132  0.0863
11475WAT     H146606   5.003   1.227   2.549  0.3191 -0.1168  3.0526
11475WAT     H246607   4.931   1.124   2.494 -2.9434  2.6381  1.8127
11475WAT    EPW46608   4.984   1.151   2.546 -0.3231  0.0762 -0.0664
11476WAT      O46609   5.967   1.907   7.560 -0.0242  0.1516  0.0585
11476WAT     H146610   5.986   1.846   7.620  0.1430 -1.2447 -1.3509
11476WAT     H246611   6.045   1.931   7.530 -0.1387  0.3565 -0.0753
11476WAT    EPW46612   5.981   1.901   7.564 -0.4979 -0.3108 -0.2506
11477WAT      O46613   1.219   4.687   4.421 -0.0574 -0.0233  0.5331
11477WAT     H146614   1.133   4.700   4.426 -0.3467 -1.5020 -0.0957
11477WAT     H246615   1.226   4.601   4.409  1.5351  0.0153  0.9522
11477WAT    EPW46616   1.207   4.676   4.420 -0.5974  0.6060 -0.7558
11478WAT      O46617   1.675   6.342   1.226 -0.1703 -0.1138  0.3340
11478WAT     H146618   1.758   6.367   1.224  0.0401 -0.8242 -0.5698
11478WAT     H246619   1.633   6.408   1.187  0.1511 -0.3554 -0.4318
11478WAT    EPW46620   1.681   6.355   1.220  1.0667  0.4702  0.0068
11479WAT      O46621   1.198   6.346   5.404 -0.6618 -0.1056  0.0014
11479WAT     H146622   1.207   6.279   5.459 -2.9016 -0.6258 -0.1423
11479WAT     H246623   1.144   6.314   5.343 -0.4858  1.3403 -0.9522
11479WAT    EPW46624   1.191   6.332   5.403 -0.2647  0.2225 -0.3912
11480WAT      O46625   6.336   5.989   1.429 -0.5263  0.1010 -0.1981
11480WAT     H146626   6.274   6.016   1.373 -0.4401  1.0710  0.1542
11480WAT     H246627   6.343   6.055   1.485 -1.7386 -1.4568  1.9455
11480WAT    EPW46628   6.328   6.003   1.429 -0.5353 -0.0386 -0.3889
11481WAT      O46629   6.977   2.893   5.800 -0.4069 -0.1053  0.2619
11481WAT     H146630   7.036   2.914   5.738  0.5812  0.6585  1.4173
11481WAT     H246631   6.967   2.807   5.790  1.1368 -0.3093  0.1947
11481WAT    EPW46632   6.984   2.883   5.789 -0.1360  0.4429 -0.6776
11482WAT      O46633   1.018   1.848   2.068 -0.7166  0.5016 -0.4627
11482WAT     H146634   1.062   1.918   2.094  1.0443 -0.5489 -0.4372
11482WAT     H246635   0.996   1.867   1.985  1.1494  0.4795 -1.0031
11482WAT    EPW46636   1.021   1.861   2.060  0.2526 -0.0259 -0.2019
11483WAT      O46637   1.541   2.311   6.799 -0.4202 -0.6004  0.1466
11483WAT     H146638   1.461   2.314   6.763 -0.1812  0.4062 -0.3482
11483WAT     H246639   1.525   2.292   6.882 -1.4117  1.8330  0.6070
11483WAT    EPW46640   1.527   2.309   6.806 -0.5556  0.3167  0.0618
11484WAT      O46641   5.834   2.553   6.871 -0.5196 -0.0766 -0.4432
11484WAT     H146642   5.870   2.484   6.910 -0.8561  0.3027  0.5979
11484WAT     H246643   5.901   2.608   6.860 -0.6197  0.3518  0.8662
11484WAT    EPW46644   5.849   2.551   6.875  0.3012 -0.6936 -0.2800
11485WAT      O46645   1.702   4.883   4.138  0.5378  0.4624 -0.8048
11485WAT     H146646   1.747   4.815   4.107  1.7053  0.9609 -0.2742
11485WAT     H246647   1.620   4.853   4.143  0.6737 -0.3032 -2.3506
11485WAT    EPW46648   1.697   4.869   4.134 -0.1448  0.7808 -0.4064
11486WAT      O46649   5.430   7.062   0.365  0.0010  0.1804 -0.3488
11486WAT     H146650   5.374   7.122   0.336 -0.8922  0.0884  1.1045
11486WAT     H246651   5.429   7.073   0.452  2.1169  0.0577 -0.2420
11486WAT    EPW46652   5.422   7.073   0.374  0.1061 -0.2797 -0.3457
11487WAT      O46653   4.405   3.677   6.163  0.0947  0.1189  0.2135
11487WAT     H146654   4.463   3.741   6.173 -0.1458  0.2509  0.8087
11487WAT     H246655   4.454   3.606   6.152  0.3758  0.1317  1.3419
11487WAT    EPW46656   4.421   3.676   6.163 -0.0229  0.0934 -0.1049
11488WAT      O46657   0.131   0.160   3.087  0.1009  0.3518  0.2034
11488WAT     H146658   0.172   0.221   3.133  0.2369  1.4485 -1.2872
11488WAT     H246659   0.050   0.191   3.079 -0.0330 -0.0280  0.0611
11488WAT    EPW46660   0.125   0.173   3.093  0.1194 -1.0576  0.0148
11489WAT      O46661   6.376   0.793   0.364 -0.0800 -0.0070  0.3605
11489WAT     H146662   6.332   0.734   0.410  0.2993 -0.3111  0.3333
11489WAT     H246663   6.396   0.854   0.423  0.4038 -0.3934  0.5985
11489WAT    EPW46664   6.372   0.793   0.380  0.0884 -0.7754  0.2717
11490WAT      O46665   4.423   1.640   0.734 -0.4657 -0.5405  0.1021
11490WAT     H146666   4.476   1.600   0.791 -1.9805  0.2101  2.1652
11490WAT     H246667   4.346   1.602   0.747 -0.6598 -1.1976 -2.4088
11490WAT    EPW46668   4.419   1.628   0.744  0.5425  0.0333  0.3963
11491WAT      O46669   7.361   2.258   6.229 -0.0154  0.3273  0.6200
11491WAT     H146670   7.381   2.199   6.168 -0.6662  1.7475 -1.0643
11491WAT     H246671   7.374   2.216   6.304  2.2155 -1.0535 -0.4455
11491WAT    EPW46672   7.366   2.243   6.231 -0.0124 -0.0443  0.4166
11492WAT      O46673   3.260   6.058   3.087 -0.5253 -0.5038 -0.3008
11492WAT     H146674   3.266   6.142   3.110  3.4213 -0.4746 -0.8400
11492WAT     H246675   3.219   6.061   3.010 -0.7954  0.8566 -0.1269
11492WAT    EPW46676   3.255   6.071   3.079  0.7737  0.0604  0.0519
11493WAT      O46677   4.588   6.747   2.317 -0.1337 -0.1967 -0.6365
11493WAT     H146678   4.627   6.792   2.380  0.4875 -1.0064 -0.4232
11493WAT     H246679   4.504   6.765   2.327 -0.0889 -0.6568  0.7194
11493WAT    EPW46680   4.581   6.756   2.328  0.0350  0.8343  0.5014
11494WAT      O46681   2.993   2.692   5.786  0.0193 -0.4658  0.0135
11494WAT     H146682   2.936   2.628   5.770 -0.7010 -0.0893  0.9496
11494WAT     H246683   2.956   2.762   5.749  0.1069 -0.3161  0.2064
11494WAT    EPW46684   2.979   2.693   5.778 -0.1949 -0.2028 -0.2063
11495WAT      O46685   5.635   3.794   1.679 -0.3474  0.0536 -0.1257
11495WAT     H146686   5.648   3.863   1.627  0.9880  0.1605  0.3131
11495WAT     H246687   5.593   3.828   1.747 -2.7267 -0.2094 -1.3803
11495WAT    EPW46688   5.631   3.810   1.681  0.1826  0.7661  0.0035
11496WAT      O46689   0.920   3.234   1.922  0.1812 -0.2307  0.0323
11496WAT     H146690   0.887   3.222   1.842 -0.2807  1.1762 -0.0322
11496WAT     H246691   0.854   3.215   1.974  0.8069 -2.2122  0.1698
11496WAT    EPW46692   0.905   3.230   1.918  0.4384  0.0451 -0.0426
11497WAT      O46693   1.298   1.115   6.718  0.4481  0.5418  0.0614
11497WAT     H146694   1.299   1.040   6.764 -0.3225  1.0774  0.9940
11497WAT     H246695   1.247   1.167   6.766  1.0687  1.7089 -0.5140
11497WAT    EPW46696   1.291   1.111   6.732  0.5115  0.5679  0.0482
11498WAT      O46697   0.763   5.804   2.227  0.2092  0.4496 -0.0960
11498WAT     H146698   0.753   5.875   2.277  0.0850 -0.1379  0.7367
11498WAT     H246699   0.816   5.753   2.275  0.6926  0.1797 -0.8969
11498WAT    EPW46700   0.770   5.807   2.241 -0.2418 -0.2069  0.0202
11499WAT      O46701   6.029   4.045   2.275  0.1848  0.0502  0.1141
11499WAT     H146702   5.996   3.966   2.287  0.4481 -0.2903 -1.2820
11499WAT     H246703   6.112   4.037   2.299  0.4828 -0.3919 -1.0175
11499WAT    EPW46704   6.036   4.032   2.281  0.0603  0.1660 -0.2466
11500WAT      O46705   5.118   2.221   0.786 -0.0429  0.2601 -0.1783
11500WAT     H146706   5.105   2.266   0.712  2.5535  0.2558 -0.7308
11500WAT     H246707   5.123   2.283   0.847 -2.2395  0.2626  0.0900
11500WAT    EPW46708   5.117   2.237   0.784 -0.3628 -0.3446 -0.2582
11501WAT      O46709   2.972   1.664   5.305  0.4198 -0.4584  0.5322
11501WAT     H146710   2.959   1.597   5.251 -1.1517 -1.6223  2.2472
11501WAT     H246711   2.891   1.691   5.325  0.9179 -0.1656  2.3673
11501WAT    EPW46712   2.958   1.658   5.300  0.4835 -0.8591 -0.3748
11502WAT      O46713   4.843   5.954   5.865 -0.1613 -0.5453 -0.0429
11502WAT     H146714   4.808   5.961   5.945 -0.8964  0.1677 -0.4088
11502WAT     H246715   4.928   5.941   5.881  0.7071  4.4196  0.9616
11502WAT    EPW46716   4.850   5.953   5.879  0.1072  0.0608 -0.6408
11503WAT      O46717   0.054   1.181   1.019  0.5766  0.5982  0.2352
11503WAT     H146718   0.116   1.232   0.984  0.0552 -0.2577 -2.0937
11503WAT     H246719   0.090   1.152   1.093  3.9319 -1.6241 -2.0407
11503WAT    EPW46720   0.068   1.184   1.025 -0.1120  0.6910 -0.0641
11504WAT      O46721   1.804   3.149   7.508 -0.4715 -0.2932  0.8405
11504WAT     H146722   1.834   3.168   7.428  0.6528  2.1074  1.7077
11504WAT     H246723   1.728   3.191   7.512  0.5223  1.5699  1.6967
11504WAT    EPW46724   1.797   3.158   7.497  0.0657 -0.4785  0.2348
11505WAT      O46725   3.835   7.047   5.346 -0.3873 -0.5589 -0.0688
11505WAT     H146726   3.911   7.070   5.312 -0.0661  0.7525  1.4497
11505WAT     H246727   3.809   6.981   5.294  1.9015 -1.2712 -0.4347
11505WAT    EPW46728   3.842   7.041   5.333 -0.4037  0.1722  0.2290
11506WAT      O46729   5.461   5.780   3.412  0.6984  0.6822  0.0718
11506WAT     H146730   5.499   5.704   3.429  0.6990  0.5086 -0.6873
11506WAT     H246731   5.469   5.789   3.325 -1.5307  0.3256 -0.2295
11506WAT    EPW46732   5.468   5.770   3.402  0.5231 -0.0058 -0.0794
11507WAT      O46733   4.557   5.344   4.683 -0.1783 -0.7981  0.0742
11507WAT     H146734   4.568   5.422   4.720  0.6216 -1.1732  0.6640
11507WAT     H246735   4.637   5.321   4.657 -0.4378 -1.3237 -0.2874
11507WAT    EPW46736   4.570   5.352   4.685  0.0021  0.2531  0.3520
11508WAT      O46737   1.128   0.032   2.462 -0.0795 -0.4368  0.1165
11508WAT     H146738   1.167   0.061   2.390  0.0851 -1.3961 -0.1868
11508WAT     H246739   1.055  -0.006   2.432 -0.8521  0.5907  0.6069
11508WAT    EPW46740   1.123   0.031   2.447 -0.5799  0.4565 -0.2983
11509WAT      O46741   4.552   3.096   1.542  0.0225 -0.4094 -0.0094
11509WAT     H146742   4.500   3.146   1.591 -0.0959 -0.3471 -0.1941
11509WAT     H246743   4.555   3.020   1.585 -0.9028 -0.6928 -0.4145
11509WAT    EPW46744   4.545   3.092   1.555  0.3414  0.5728  0.5662
11510WAT      O46745   4.602   4.252   2.406 -1.0164  0.3325  0.1961
11510WAT     H146746   4.532   4.298   2.432 -0.5757  0.8979  0.4204
11510WAT     H246747   4.660   4.265   2.471  0.2416  2.0868 -1.1651
11510WAT    EPW46748   4.600   4.261   2.420  0.4967 -0.4832 -0.5188
11511WAT      O46749   4.055   3.170   0.149  0.2271  0.2513  0.4734
11511WAT     H146750   3.999   3.214   0.199 -0.0183 -0.7362  1.1050
11511WAT     H246751   4.059   3.092   0.188 -0.2404 -0.6753 -1.2622
11511WAT    EPW46752   4.048   3.165   0.162  0.6558  0.4678 -0.2004
11512WAT      O46753   1.688   0.038   7.576  0.5498 -0.2729  0.2783
11512WAT     H146754   1.751  -0.009   7.538  0.7250 -0.7830  1.1815
11512WAT     H246755   1.728   0.078   7.642  0.6083  1.8781 -0.9599
11512WAT    EPW46756   1.703   0.037   7.580  0.3308  0.1464 -0.6812
11513WAT      O46757   1.934   4.682   1.890  0.6038  0.1303 -0.1426
11513WAT     H146758   1.940   4.769   1.883  1.1266  0.0679 -0.5742
11513WAT     H246759   2.012   4.659   1.922  0.1498 -0.1031  0.8254
11513WAT    EPW46760   1.947   4.691   1.893  0.6209 -0.0511 -0.1429
11514WAT      O46761   2.667   6.406   1.166  0.5405  0.1787  0.7064
11514WAT     H146762   2.693   6.373   1.089  0.3731  0.3303  0.5858
11514WAT     H246763   2.582   6.421   1.154  0.9217  2.1790  0.2068
11514WAT    EPW46764   2.659   6.403   1.153 -0.3031  0.0772  0.0632
11515WAT      O46765   6.229   0.564   7.161  0.3412  0.5100  0.2501
11515WAT     H146766   6.265   0.539   7.237 -2.3176 -2.9866  0.6080
11515WAT     H246767   6.276   0.522   7.101 -0.5255 -0.7598  0.4189
11515WAT    EPW46768   6.241   0.554   7.164 -0.3178 -0.6414 -0.0826
11516WAT      O46769   5.980   6.021   3.898  0.1248  0.5370 -0.1151
11516WAT     H146770   5.955   5.976   3.968  0.8554  1.3263  0.6802
11516WAT     H246771   6.046   5.974   3.866  1.2368  1.2543  1.0177
11516WAT    EPW46772   5.986   6.008   3.904 -0.3056  0.4449 -0.5754
11517WAT      O46773   5.733   5.787   5.134  0.6155 -0.1761 -0.2029
11517WAT     H146774   5.809   5.761   5.099  0.6975 -0.0929 -0.0840
11517WAT     H246775   5.678   5.782   5.066  0.4128 -1.5821  0.0299
11517WAT    EPW46776   5.736   5.782   5.119 -0.2068  0.4582 -0.2799
11518WAT      O46777   6.229   5.761   1.737  0.7769 -0.0773  0.2180
11518WAT     H146778   6.226   5.761   1.650  0.2314  0.4888  0.2236
11518WAT     H246779   6.224   5.846   1.757  0.3184 -0.2398  0.8086
11518WAT    EPW46780   6.228   5.774   1.727 -0.0603  0.4685 -0.5356
11519WAT      O46781   3.890   0.151   5.406  0.0388 -0.0077  0.1867
11519WAT     H146782   3.866   0.075   5.371  0.2400 -0.1611  0.3806
11519WAT     H246783   3.921   0.196   5.338 -1.9326  0.6867 -0.3422
11519WAT    EPW46784   3.891   0.147   5.391  0.0177  0.0187  0.1189
11520WAT      O46785   0.912   6.835   4.104 -0.6680  0.4156 -0.1940
11520WAT     H146786   0.899   6.905   4.054  0.2012  1.0848  0.4851
11520WAT     H246787   0.901   6.864   4.185 -0.7670 -0.3484  0.0813
11520WAT    EPW46788   0.909   6.849   4.108 -0.4500 -0.1378  0.0263
11521WAT      O46789   7.171   3.567   6.653 -0.0751  0.0332 -0.1379
11521WAT     H146790   7.176   3.519   6.581  2.1776  1.6935 -1.2421
11521WAT     H246791   7.248   3.554   6.692 -0.1269  1.3014  0.4655
11521WAT    EPW46792   7.183   3.558   6.648 -0.6645 -0.3338 -0.0727
11522WAT      O46793   0.862   3.055   2.287  0.3409 -0.1658 -0.3618
11522WAT     H146794   0.821   3.130   2.268 -1.2128 -0.5992  1.0939
11522WAT     H246795   0.827   2.998   2.231 -1.0546 -0.5159  0.8209
11522WAT    EPW46796   0.851   3.058   2.276 -0.1257 -1.0218  0.3901
11523WAT      O46797   1.557   0.674   5.829  0.5449  0.3995  0.0588
11523WAT     H146798   1.551   0.588   5.844  1.9561  0.1184 -0.8662
11523WAT     H246799   1.602   0.679   5.755 -0.3847  1.9287 -0.4594
11523WAT    EPW46800   1.563   0.662   5.820 -0.3708  0.3436  0.2552
11524WAT      O46801   7.201   1.279   2.856  0.7436  0.2309 -0.0811
11524WAT     H146802   7.118   1.308   2.858  0.1419 -1.4248  0.5190
11524WAT     H246803   7.192   1.193   2.859  2.4856 -0.0266 -1.2436
11524WAT    EPW46804   7.187   1.271   2.857 -0.2575  0.7047  0.0911
11525WAT      O46805   7.536   3.203   0.916  0.1844 -0.0688  0.6820
11525WAT     H146806   7.586   3.239   0.855 -0.1021  1.6848  1.4413
11525WAT     H246807   7.586   3.139   0.948  1.3068  0.6065  0.3212
11525WAT    EPW46808   7.551   3.199   0.912  0.0486 -0.0444 -0.5794
11526WAT      O46809   4.062   0.776   6.644 -0.5263 -0.5459 -0.1593
11526WAT     H146810   3.991   0.822   6.621 -3.6959 -1.9416  5.1076
11526WAT     H246811   4.048   0.698   6.607  0.6446  0.2723 -2.5158
11526WAT    EPW46812   4.049   0.771   6.635  0.9392  0.8625 -0.1184
11527WAT      O46813   1.806   3.476   3.595  0.3405  0.2140 -0.1213
11527WAT     H146814   1.817   3.562   3.605 -0.6021  0.2771  0.5179
11527WAT     H246815   1.887   3.444   3.600  0.6353  1.0043  0.3135
11527WAT    EPW46816   1.819   3.484   3.597 -0.0191  0.2021 -0.0942
11528WAT      O46817   0.346   3.026   3.702  0.2868 -0.2356  0.3486
11528WAT     H146818   0.374   3.108   3.694  1.0022 -0.6105 -1.5567
11528WAT     H246819   0.392   2.994   3.769  0.5364  0.6943  0.6320
11528WAT    EPW46820   0.357   3.033   3.711  0.1366 -0.1041 -0.5654
11529WAT      O46821   4.660   0.589   2.796 -0.3580 -0.1339 -0.3862
11529WAT     H146822   4.673   0.634   2.723 -2.4744  0.7435 -0.2957
11529WAT     H246823   4.576   0.565   2.791 -0.1065 -1.5014  0.9828
11529WAT    EPW46824   4.649   0.592   2.785 -0.3524  0.2994  0.7616
11530WAT      O46825   0.589   0.253   1.023  0.3132  0.2477 -0.2971
11530WAT     H146826   0.549   0.200   1.080  0.0350 -0.3666 -1.0388
11530WAT     H246827   0.570   0.333   1.052  0.3317 -0.0577  0.5715
11530WAT    EPW46828   0.580   0.257   1.036  0.2693 -0.1892  0.1609
11531WAT      O46829   7.176   4.630   0.696  0.0601 -0.1600  1.0371
11531WAT     H146830   7.091   4.610   0.687 -0.1415 -0.3566  2.8942
11531WAT     H246831   7.194   4.678   0.626 -1.6897  0.1742  0.7741
11531WAT    EPW46832   7.166   4.634   0.684  0.1032  0.1619 -0.1626
11532WAT      O46833   5.750   4.708   7.417 -0.0085  0.3050  0.1677
11532WAT     H146834   5.683   4.654   7.432 -0.7052  1.4694  1.4837
11532WAT     H246835   5.724   4.784   7.451  0.6378  1.7218 -2.2266
11532WAT    EPW46836   5.737   4.711   7.424  0.2044  0.4653 -0.0222
11533WAT      O46837   5.226   2.142   2.861  0.2381 -0.1861  0.3044
11533WAT     H146838   5.171   2.077   2.879 -1.0073  1.2459  2.1263
11533WAT     H246839   5.173   2.211   2.850  1.5879  1.1129  1.3851
11533WAT    EPW46840   5.210   2.143   2.862  0.1751 -0.8568 -0.1137
11534WAT      O46841   3.759   0.324   5.072 -0.4253  0.0684 -0.6024
11534WAT     H146842   3.726   0.265   5.017  0.5115  0.2386 -1.3734
11534WAT     H246843   3.828   0.283   5.106  1.0556  1.1481 -2.1643
11534WAT    EPW46844   3.764   0.309   5.069 -0.6620  0.3255  0.0591
11535WAT      O46845   0.707   1.335   7.257  0.1492 -0.3756 -0.5068
11535WAT     H146846   0.744   1.266   7.295  0.0323 -0.1095  0.0965
11535WAT     H246847   0.630   1.342   7.298 -0.2440 -0.4583 -1.2206
11535WAT    EPW46848   0.701   1.326   7.269  0.1403 -0.1819  0.5039
11536WAT      O46849   0.983   2.831   1.886 -0.3177  0.0377 -0.3238
11536WAT     H146850   0.911   2.802   1.846 -0.9599  0.4827  0.4734
11536WAT     H246851   0.999   2.907   1.847 -0.1536 -0.1585 -0.6434
11536WAT    EPW46852   0.975   2.838   1.874  0.1752  0.5909  0.0456
11537WAT      O46853   2.732   5.980   4.030  0.2305 -0.7576 -0.1801
11537WAT     H146854   2.779   6.029   3.976  1.5640 -3.6065 -1.8591
11537WAT     H246855   2.656   5.970   3.988  0.2915 -0.8479 -0.2696
11537WAT    EPW46856   2.728   5.986   4.016  0.1587  0.3338 -0.1822
11538WAT      O46857   5.170   5.328   7.429 -0.7098  0.2546  0.1025
11538WAT     H146858   5.224   5.325   7.498 -1.1062  0.0154  0.4103
11538WAT     H246859   5.224   5.326   7.361 -0.1972  2.3303  0.3740
11538WAT    EPW46860   5.186   5.327   7.429  0.0479  0.3341  0.9501
11539WAT      O46861   6.357   0.981   1.108 -0.5118 -0.8986  0.6069
11539WAT     H146862   6.394   0.972   1.030  0.1098 -3.4579  1.1112
11539WAT     H246863   6.283   0.934   1.102 -0.3261 -1.3514  1.6106
11539WAT    EPW46864   6.351   0.973   1.096  1.1566 -0.3763 -0.1318
11540WAT      O46865   0.927   1.296   4.593 -0.8330  0.1228  0.0194
11540WAT     H146866   0.943   1.329   4.513 -0.9872 -0.6948 -0.3540
11540WAT     H246867   0.847   1.325   4.611 -0.5666  0.8152  0.1510
11540WAT    EPW46868   0.918   1.305   4.584  0.0190 -0.3042  0.0152
11541WAT      O46869   4.381   5.744   6.725 -0.1463  0.2623  0.1621
11541WAT     H146870   4.415   5.784   6.655 -3.4810  1.2787 -1.0992
11541WAT     H246871   4.360   5.664   6.695 -1.0654  0.5089  0.1000
11541WAT    EPW46872   4.383   5.738   6.710 -0.2642  0.4729 -0.3502
11542WAT      O46873   2.442   5.485   6.516  0.1597  0.4302  0.0983
11542WAT     H146874   2.471   5.409   6.483  1.0725  0.5374  0.6276
11542WAT     H246875   2.377   5.461   6.569 -0.1314  0.1004 -0.3985
11542WAT    EPW46876   2.437   5.470   6.519 -0.8345  0.4378  0.0163
11543WAT      O46877   1.516   6.609   6.486  0.6418  0.1196  0.3333
11543WAT     H146878   1.506   6.593   6.571 -0.3908 -1.1202  0.0035
11543WAT     H246879   1.495   6.534   6.448 -1.1754  1.2780 -1.1341
11543WAT    EPW46880   1.511   6.596   6.493 -0.1753 -0.4230 -0.0257
11544WAT      O46881   0.559   3.878   6.167 -0.2927 -0.3003 -0.3810
11544WAT     H146882   0.551   3.964   6.180 -2.9400 -0.2228 -1.7251
11544WAT     H246883   0.640   3.869   6.135 -0.0685  1.7261 -0.5163
11544WAT    EPW46884   0.570   3.889   6.165 -0.0110  0.4180 -0.1146
11545WAT      O46885   4.770   3.854   1.366  0.7112  0.0515 -0.4529
11545WAT     H146886   4.771   3.911   1.300 -1.2863  0.7627  0.0371
11545WAT     H246887   4.752   3.778   1.327 -0.2204  0.4279 -0.8026
11545WAT    EPW46888   4.767   3.851   1.351  0.3425 -0.5105 -0.0381
11546WAT      O46889   3.415   2.256   7.552  0.1499  0.2487 -0.1380
11546WAT     H146890   3.419   2.340   7.573 -2.6696  0.5944 -0.6812
11546WAT     H246891   3.340   2.229   7.587  0.1900 -1.6473 -1.3535
11546WAT    EPW46892   3.405   2.264   7.560 -0.3988  0.7316 -0.0203
11547WAT      O46893   2.447   1.990   0.521  0.3651 -0.2939  0.5069
11547WAT     H146894   2.400   1.975   0.448  0.2619 -0.0278  0.5177
11547WAT     H246895   2.520   1.944   0.508  1.0543  0.9923 -0.4821
11547WAT    EPW46896   2.451   1.981   0.508 -0.3857  0.0011  0.5432
11548WAT      O46897   2.739   1.064   4.315  0.0448 -0.4642  0.5061
11548WAT     H146898   2.668   1.111   4.294 -0.2199 -0.8614  0.5190
11548WAT     H246899   2.786   1.066   4.241 -0.5291 -1.2007  0.1100
11548WAT    EPW46900   2.735   1.071   4.301  0.0564  0.3126  0.0751
11549WAT      O46901   3.402   4.377   2.361 -0.3041 -0.1367 -0.2381
11549WAT     H146902   3.359   4.304   2.337 -0.2886 -0.5062  0.8326
11549WAT     H246903   3.458   4.389   2.295 -1.1788 -0.3491 -1.0584
11549WAT    EPW46904   3.404   4.368   2.348 -0.0905  0.2318 -0.5480
11550WAT      O46905   5.886   5.836   4.082  0.0328  0.0049  0.1222
11550WAT     H146906   5.929   5.847   4.158  0.4218 -1.1856  0.0892
11550WAT     H246907   5.808   5.874   4.097  0.6248  1.0913  0.6001
11550WAT    EPW46908   5.881   5.843   4.096 -0.2429  0.5801  0.0676
11551WAT      O46909   7.235   6.936   2.187  0.2305  0.2644 -0.6398
11551WAT     H146910   7.259   6.965   2.266 -0.6655 -0.9183  0.0932
11551WAT     H246911   7.280   6.987   2.132  0.9126  1.0760  0.6270
11551WAT    EPW46912   7.245   6.948   2.191  0.1464 -0.8413 -0.0013
11552WAT      O46913   7.063   4.901   4.031 -0.3438 -0.6921 -0.0682
11552WAT     H146914   7.130   4.849   4.050  0.8676  1.2472  1.4013
11552WAT     H246915   7.101   4.977   4.010 -2.0618  0.2804  0.0974
11552WAT    EPW46916   7.078   4.905   4.030 -0.5340  0.1964  0.5702
11553WAT      O46917   5.166   6.873   6.193 -0.0334  0.0650  0.6665
11553WAT     H146918   5.103   6.859   6.251 -0.4620  1.0683  0.4658
11553WAT     H246919   5.238   6.884   6.242 -0.1166 -0.5454  0.9247
11553WAT    EPW46920   5.167   6.873   6.209  0.1235 -0.6157  0.2606
11554WAT      O46921   2.654   7.580   1.923 -0.2001 -0.0444 -0.8543
11554WAT     H146922   2.592   7.559   1.981  0.3747  1.0447  0.1973
11554WAT     H246923   2.724   7.595   1.973  0.8530 -0.9328 -1.9890
11554WAT    EPW46924   2.656   7.579   1.939  0.6931 -0.1496  0.4771
11555WAT      O46925   7.592   5.436   6.550  0.5904 -0.8451 -0.3487
11555WAT     H146926   7.609   5.403   6.628  1.6165  1.2856  0.3965
11555WAT     H246927   7.535   5.380   6.516 -2.4723 -0.2868  3.1965
11555WAT    EPW46928   7.586   5.423   6.556 -0.0164 -0.3746  0.8907
11556WAT      O46929   0.658   5.018   6.835 -0.1034  0.4929 -0.4290
11556WAT     H146930   0.653   4.933   6.850 -0.6586  0.7003  0.6466
11556WAT     H246931   0.722   5.025   6.776  0.2965 -0.6134 -0.1485
11556WAT    EPW46932   0.667   5.007   6.828 -0.3428 -0.3204 -0.7497
11557WAT      O46933   5.691   6.403   5.721 -0.8084  0.1325  0.6953
11557WAT     H146934   5.727   6.435   5.648 -0.5844  0.2559  0.8557
11557WAT     H246935   5.757   6.358   5.758 -1.1357 -0.5797  0.4395
11557WAT    EPW46936   5.706   6.401   5.716 -0.6803 -0.2276  0.4957
11558WAT      O46937   6.886   3.537   1.510  0.0692 -0.1661  0.5293
11558WAT     H146938   6.822   3.596   1.508 -0.4874 -0.5628  3.3934
11558WAT     H246939   6.958   3.586   1.505 -0.3800  0.4202 -0.8395
11558WAT    EPW46940   6.887   3.553   1.509  0.4460 -0.0354  0.2439
11559WAT      O46941   0.019   6.665   5.415  0.6929  0.3233 -0.0910
11559WAT     H146942  -0.031   6.733   5.436  1.5118  0.6206  0.9933
11559WAT     H246943   0.060   6.691   5.342 -0.2348  0.3165 -0.6259
11559WAT    EPW46944   0.018   6.679   5.407  0.3081 -0.6318 -0.1474
11560WAT      O46945   5.949   6.600   6.458 -0.3034  0.0295  0.3480
11560WAT     H146946   5.892   6.595   6.524 -0.8851  1.6063  0.0033
11560WAT     H246947   6.007   6.659   6.485  1.4499 -1.8032  0.8400
11560WAT    EPW46948   5.949   6.608   6.472  0.2578 -0.4062  0.5591
11561WAT      O46949   0.688   6.206   1.509  0.2165 -0.0508 -0.5516
11561WAT     H146950   0.626   6.197   1.449 -1.3307  0.0587  0.9607
11561WAT     H246951   0.656   6.164   1.578  2.4667 -1.2357 -0.1108
11561WAT    EPW46952   0.674   6.198   1.510 -0.5588 -0.5637 -0.1691
11562WAT      O46953   1.779   5.588   6.223  0.4303 -0.4346 -0.3241
11562WAT     H146954   1.789   5.622   6.303  1.3635 -1.9647  0.2545
11562WAT     H246955   1.693   5.577   6.216  0.2573  0.5928  0.0903
11562WAT    EPW46956   1.768   5.591   6.234 -0.2404  0.4897  0.0292
11563WAT      O46957   6.596   6.257   6.870 -0.5719  0.7779 -0.0298
11563WAT     H146958   6.650   6.325   6.880 -0.3436  0.5270  0.5004
11563WAT     H246959   6.643   6.189   6.897 -1.3586  0.6427  1.0663
11563WAT    EPW46960   6.611   6.257   6.876 -0.0941 -0.1179 -0.6078
11564WAT      O46961   6.350   1.318   6.722  0.3198 -0.4170 -0.7929
11564WAT     H146962   6.364   1.404   6.721 -2.1550  0.0497 -1.1454
11564WAT     H246963   6.264   1.311   6.714  0.3596 -2.9304  0.1130
11564WAT    EPW46964   6.339   1.330   6.721  0.6073  0.1460  0.3567
11565WAT      O46965   0.423   3.607   2.213  0.4734  0.2264 -0.1185
11565WAT     H146966   0.387   3.642   2.284 -0.0688  0.9845 -0.7436
11565WAT     H246967   0.439   3.676   2.162  0.8663 -0.3017 -0.7304
11565WAT    EPW46968   0.420   3.622   2.216  0.2625 -0.9281 -0.5704
11566WAT      O46969   6.592   3.026   7.087 -0.1899 -0.0269 -0.6580
11566WAT     H146970   6.638   2.955   7.111 -2.8018 -1.6609 -0.0358
11566WAT     H246971   6.575   3.066   7.163 -1.2850 -0.4662 -0.6553
11566WAT    EPW46972   6.597   3.021   7.102  0.1690  0.4396 -0.2622
11567WAT      O46973   5.207   5.720   1.468  0.3168  0.5207  0.1836
11567WAT     H146974   5.281   5.676   1.481  1.6086  2.7233  0.8911
11567WAT     H246975   5.233   5.791   1.424 -1.7075  0.4503 -1.2509
11567WAT    EPW46976   5.222   5.724   1.464 -0.5127 -0.3147  0.2844
11568WAT      O46977   2.810   7.471   7.513 -0.6207  0.1132 -0.2556
11568WAT     H146978   2.810   7.515   7.588 -2.8980  1.6655 -1.0430
11568WAT     H246979   2.792   7.389   7.537  1.0498  0.0537  1.0160
11568WAT    EPW46980   2.807   7.465   7.527  0.1286 -0.2242  0.7534
11569WAT      O46981   2.448   4.669   6.934  0.1081 -0.2951  0.2427
11569WAT     H146982   2.454   4.755   6.945  3.5521 -0.5172  1.1281
11569WAT     H246983   2.373   4.660   6.889 -1.0736  2.9775  1.2316
11569WAT    EPW46984   2.438   4.680   6.929 -0.3089 -0.0560 -0.1103
11570WAT      O46985   0.647   2.207   4.260  0.2160 -0.5534 -0.5721
11570WAT     H146986   0.619   2.278   4.218  0.6162  0.7296  1.1837
11570WAT     H246987   0.723   2.232   4.294 -0.8552 -0.7967  2.3706
11570WAT    EPW46988   0.654   2.221   4.259 -0.2898 -0.0507 -0.5454
11571WAT      O46989   1.761   2.781   0.339  0.1264  0.0192 -0.3226
11571WAT     H146990   1.807   2.855   0.342 -0.3555  0.3323 -0.5040
11571WAT     H246991   1.821   2.719   0.349  0.3699  0.4858  1.4929
11571WAT    EPW46992   1.776   2.783   0.341 -0.0666 -0.3803  0.1095
11572WAT      O46993   6.932   0.161   0.703 -0.1182 -0.2878 -0.2315
11572WAT     H146994   6.966   0.172   0.623 -1.4225 -1.7509 -1.0531
11572WAT     H246995   6.989   0.106   0.742  1.2217  1.4449  0.3807
11572WAT    EPW46996   6.946   0.154   0.697  0.2355  0.6835  0.0750
11573WAT      O46997   1.848   7.459   5.840  0.0431 -0.1283  0.2198
11573WAT     H146998   1.789   7.521   5.854 -0.2644 -0.4928  0.5721
11573WAT     H246999   1.871   7.434   5.920  0.4113 -0.2330  0.0825
11573WAT    EPW47000   1.843   7.464   5.854 -0.0921 -0.3248 -0.3475
11574WAT      O47001   1.853   2.543   5.185 -0.5986 -0.3216  0.4246
11574WAT     H147002   1.853   2.622   5.149  0.4100  0.8552  2.8191
11574WAT     H247003   1.769   2.524   5.196 -0.8335  0.6320  0.2808
11574WAT    EPW47004   1.841   2.552   5.181  0.2567  0.4569  0.2769
11575WAT      O47005   4.019   3.895   7.118 -0.1365 -0.0739  0.3685
11575WAT     H147006   4.004   3.952   7.054 -0.3092  0.1717  0.6239
11575WAT     H247007   4.093   3.923   7.154  0.9203 -1.2133 -0.8112
11575WAT    EPW47008   4.028   3.907   7.114 -0.0759  0.2318 -0.3922
11576WAT      O47009   2.672   1.444   5.516 -0.3543  0.5364  0.4365
11576WAT     H147010   2.618   1.493   5.470  0.5245  0.3092 -0.8975
11576WAT     H247011   2.687   1.491   5.588 -3.5498 -0.1085  1.6959
11576WAT    EPW47012   2.666   1.458   5.520 -0.1289 -0.3850  0.0409
11577WAT      O47013   0.436   4.393   1.113 -0.9638 -0.8875 -0.7327
11577WAT     H147014   0.378   4.369   1.052 -0.4847  0.4803 -1.7749
11577WAT     H247015   0.392   4.450   1.162 -0.8965 -0.8440 -0.7228
11577WAT    EPW47016   0.421   4.398   1.111 -0.4126  0.0460 -0.2517
11578WAT      O47017   2.637   2.853   4.044 -0.5650  0.7069  0.0887
11578WAT     H147018   2.669   2.925   4.007  0.6302  0.1091 -0.0845
11578WAT     H247019   2.576   2.825   3.987 -0.3090  1.0137 -0.3376
11578WAT    EPW47020   2.633   2.859   4.030 -0.1192 -0.1894  0.9629
11579WAT      O47021   0.323   5.761   1.835 -0.6103  0.1122 -1.0033
11579WAT     H147022   0.263   5.699   1.820  2.6501 -3.0119 -2.6370
11579WAT     H247023   0.356   5.776   1.756  1.7273  0.5451 -0.0120
11579WAT    EPW47024   0.319   5.754   1.821 -0.2227 -0.1074 -0.3148
11580WAT      O47025   1.569   2.229   1.642 -0.0551 -0.3339  0.0227
11580WAT     H147026   1.605   2.209   1.719  0.5706 -2.0025 -0.6564
11580WAT     H247027   1.496   2.183   1.640 -0.0549 -0.3218 -0.3965
11580WAT    EPW47028   1.564   2.219   1.653 -0.0623  0.6453  0.4160
11581WAT      O47029   1.259   2.776   6.100 -0.3928  0.1200 -0.1911
11581WAT     H147030   1.308   2.707   6.121  0.7328  0.9210 -0.0919
11581WAT     H247031   1.219   2.797   6.176  0.3052  0.3805  0.1122
11581WAT    EPW47032   1.260   2.769   6.115 -0.3580  0.0113 -0.1729
11582WAT      O47033   3.333   2.534   0.031  0.0181  0.1346 -0.3089
11582WAT     H147034   3.401   2.572   0.069 -1.0908  1.1239  0.7614
11582WAT     H247035   3.331   2.571  -0.048  0.7401  0.0490 -0.3797
11582WAT    EPW47036   3.343   2.545   0.025  0.2022  0.7407  0.3880
11583WAT      O47037   6.689   3.262   3.065 -0.3109  0.1811  0.0703
11583WAT     H147038   6.697   3.306   2.990 -1.2828 -2.8113 -2.0381
11583WAT     H247039   6.702   3.322   3.127 -0.8198  3.1502 -2.4525
11583WAT    EPW47040   6.692   3.277   3.063  0.4362 -0.0446  0.0618
11584WAT      O47041   1.742   0.462   2.259 -0.0551 -0.3024  0.9110
11584WAT     H147042   1.800   0.515   2.221 -1.0243 -0.4478 -0.8967
11584WAT     H247043   1.734   0.396   2.203 -2.1136 -0.1725  0.9636
11584WAT    EPW47044   1.749   0.460   2.245 -0.6053  0.8874 -0.0374
11585WAT      O47045   1.049   0.949   0.846 -0.0859  0.4869  1.1804
11585WAT     H147046   1.013   0.992   0.912 -2.5293  0.5658 -0.1034
11585WAT     H247047   1.020   0.867   0.855  0.7518  0.1487  0.9824
11585WAT    EPW47048   1.040   0.943   0.857  0.4926 -0.3498  0.1781
11586WAT      O47049   4.293   0.665   3.253 -0.3675  0.0112 -0.3604
11586WAT     H147050   4.221   0.629   3.220 -1.9201  0.4885  2.2038
11586WAT     H247051   4.264   0.709   3.323  2.2672  1.2435  0.1059
11586WAT    EPW47052   4.278   0.666   3.258  0.2402  0.4507 -0.6153
11587WAT      O47053   5.985   5.937   2.836 -0.5311  0.4977 -0.1940
11587WAT     H147054   5.987   5.889   2.909  0.9193 -1.2880 -1.3241
11587WAT     H247055   6.069   5.945   2.814 -0.8788  1.7746 -1.2007
11587WAT    EPW47056   5.998   5.931   2.843  0.2515  0.1373 -0.4321
11588WAT      O47057   6.972   1.351   4.453 -0.1070  0.3941  0.2254
11588WAT     H147058   6.896   1.310   4.470  0.7199 -2.0306 -1.3836
11588WAT     H247059   7.023   1.326   4.520 -0.0786  0.1219  0.1047
11588WAT    EPW47060   6.968   1.341   4.466 -0.5015 -0.3940  0.0942
11589WAT      O47061   0.203   7.457   6.117  0.4677  0.2195  0.2538
11589WAT     H147062   0.276   7.441   6.161 -0.0935 -1.3829  0.6697
11589WAT     H247063   0.227   7.446   6.033  0.6642 -0.5912  0.4023
11589WAT    EPW47064   0.217   7.453   6.111 -0.1518  0.2480  0.4284
11590WAT      O47065   5.340   4.750   0.749  0.1401  0.2187  0.2791
11590WAT     H147066   5.309   4.825   0.716  1.5924  0.8767  0.3139
11590WAT     H247067   5.295   4.689   0.707  0.6388  1.0595 -1.6114
11590WAT    EPW47068   5.329   4.752   0.738 -0.5309 -0.2193  0.0806
11591WAT      O47069   6.762   0.546   7.535 -0.2443 -0.2354  0.1366
11591WAT     H147070   6.761   0.486   7.598 -2.2538  1.6589  2.0422
11591WAT     H247071   6.845   0.574   7.535  0.4690 -2.1909 -0.0753
11591WAT    EPW47072   6.774   0.541   7.544  0.0963  0.0388  0.0604
11592WAT      O47073   5.119   6.734   4.425  0.0066 -0.6050 -0.0040
11592WAT     H147074   5.202   6.749   4.447  0.0456  2.8164 -1.7589
11592WAT     H247075   5.125   6.706   4.342 -0.5969 -1.5217  0.2410
11592WAT    EPW47076   5.132   6.732   4.416 -0.3509  0.3018  0.2784
11593WAT      O47077   1.502   2.675   2.521 -0.3802 -1.0093  0.1243
11593WAT     H147078   1.587   2.655   2.513 -0.6531 -1.8348 -1.0592
11593WAT     H247079   1.490   2.735   2.459 -1.1858 -2.8501 -1.6538
11593WAT    EPW47080   1.513   2.681   2.511  1.1033 -0.4905  0.4688
11594WAT      O47081   0.304   3.277   4.776  0.0692  0.2601 -0.4423
11594WAT     H147082   0.365   3.304   4.832  0.0972 -1.5594  0.5072
11594WAT     H247083   0.249   3.232   4.827 -1.4929  0.9439 -1.4452
11594WAT    EPW47084   0.305   3.274   4.792  0.1924 -0.2127  0.2719
11595WAT      O47085   1.523   6.481   2.671  0.3596  0.3943  0.4314
11595WAT     H147086   1.461   6.526   2.712 -1.0487  2.1507 -3.2477
11595WAT     H247087   1.480   6.422   2.624  1.6434 -0.0072 -0.3138
11595WAT    EPW47088   1.508   6.479   2.670 -0.2124 -0.4226  0.0379
11596WAT      O47089   5.772   0.769   4.040  0.0508 -0.4616  0.2127
11596WAT     H147090   5.784   0.683   4.025  0.6470 -0.4689  0.7061
11596WAT     H247091   5.766   0.774   4.126 -1.1915 -0.1384  0.1258
11596WAT    EPW47092   5.773   0.757   4.050 -0.0599  0.4288  0.1648
11597WAT      O47093   1.126   7.487   3.814 -0.2749 -0.3233  0.0176
11597WAT     H147094   1.099   7.556   3.859 -2.6242 -0.3150 -1.2199
11597WAT     H247095   1.150   7.521   3.737 -1.0129 -0.7728 -0.4354
11597WAT    EPW47096   1.125   7.502   3.809 -0.1916  0.0913 -0.3621
11598WAT      O47097   1.221   1.656   2.579 -0.6265  0.1497 -0.4034
11598WAT     H147098   1.268   1.713   2.533  1.3852  0.0853  1.3608
11598WAT     H247099   1.139   1.682   2.567 -0.0859  1.0171 -2.7206
11598WAT    EPW47100   1.216   1.668   2.571 -0.2761 -0.1759  0.1045
11599WAT      O47101   7.663   6.704   6.502  0.2067  0.5846 -1.0231
11599WAT     H147102   7.598   6.717   6.446 -1.1601 -2.0029 -0.1989
11599WAT     H247103   7.640   6.630   6.544  2.2949  1.0945  1.2777
11599WAT    EPW47104   7.650   6.695   6.500  0.3861  0.0495  0.5054
11600WAT      O47105   5.134   6.976   4.194  0.2555 -0.2988  0.3865
11600WAT     H147106   5.065   6.953   4.146 -0.6769  1.1889  0.9336
11600WAT     H247107   5.099   6.996   4.271  1.6947 -2.4313  1.6761
11600WAT    EPW47108   5.119   6.976   4.198 -0.3660  0.7654  0.1272
11601WAT      O47109   1.811   2.673   0.790 -0.0870 -0.3604 -0.3417
11601WAT     H147110   1.832   2.605   0.841 -2.0593 -0.8395 -0.1072
11601WAT     H247111   1.726   2.663   0.777 -0.1706  1.3936 -1.3493
11601WAT    EPW47112   1.802   2.661   0.796 -0.3625 -0.0083  0.4602
11602WAT      O47113   4.300   0.216   3.078 -0.5511  0.0298 -0.5297
11602WAT     H147114   4.275   0.133   3.067 -4.6114  0.5679  2.2838
11602WAT     H247115   4.324   0.219   3.162 -1.7852  1.8507 -0.1826
11602WAT    EPW47116   4.300   0.204   3.089 -0.6258 -0.3455  0.1359
11603WAT      O47117   1.267   1.355   5.946  0.0928 -0.0725 -0.3508
11603WAT     H147118   1.337   1.332   5.993 -1.0642 -2.2633  0.4361
11603WAT     H247119   1.283   1.321   5.868 -0.7317 -2.0955  0.2782
11603WAT    EPW47120   1.280   1.347   5.942  0.1455  0.4944  0.0262
11604WAT      O47121   2.369   6.622   6.204  0.1942 -0.5497  0.1506
11604WAT     H147122   2.391   6.687   6.151  0.3113  0.8265  1.7824
11604WAT     H247123   2.285   6.637   6.222 -0.2211 -1.7794 -0.6726
11604WAT    EPW47124   2.360   6.634   6.199  0.0597  0.9757  0.0293
11605WAT      O47125   2.141   3.387   0.470 -0.5306  0.0020  0.1672
11605WAT     H147126   2.106   3.351   0.541 -0.2470 -0.3397  0.1380
11605WAT     H247127   2.123   3.471   0.479 -2.1666 -0.2689 -0.3120
11605WAT    EPW47128   2.133   3.394   0.482  0.6881  0.1451 -0.0908
11606WAT      O47129   3.883   2.171   5.144 -0.0237  0.1749 -0.2240
11606WAT     H147130   3.967   2.193   5.139  0.1235 -0.3789 -0.2958
11606WAT     H247131   3.848   2.233   5.195  0.4230  0.4145 -0.2081
11606WAT    EPW47132   3.890   2.183   5.151  0.4613  0.4316  0.1946
11607WAT      O47133   5.803   4.202   2.014  0.1342 -0.5884  0.2955
11607WAT     H147134   5.880   4.211   2.055 -0.2508 -1.4545  1.2356
11607WAT     H247135   5.762   4.278   2.031 -0.3499 -1.2235  2.2833
11607WAT    EPW47136   5.808   4.215   2.023 -0.0772 -0.1479  0.7021
11608WAT      O47137   1.067   0.813   3.797 -0.0720  0.0997 -0.1542
11608WAT     H147138   1.134   0.772   3.759  0.8877  1.3217  0.1827
11608WAT     H247139   1.017   0.837   3.729  1.4352  1.9378 -0.6883
11608WAT    EPW47140   1.069   0.810   3.781 -0.0401  0.2293  0.2013
11609WAT      O47141   4.308   6.748   6.320 -0.0163 -0.8374 -0.0256
11609WAT     H147142   4.333   6.829   6.342 -2.2757  0.2602 -1.1291
11609WAT     H247143   4.379   6.713   6.284  0.5431  1.3450 -1.1979
11609WAT    EPW47144   4.322   6.755   6.318 -0.7826  0.2274  0.2863
11610WAT      O47145   1.001   1.578   5.151  0.2551 -0.1232 -0.5388
11610WAT     H147146   1.027   1.524   5.215 -0.2676  0.2600  0.0030
11610WAT     H247147   1.068   1.577   5.095  0.0017 -1.8482 -0.8792
11610WAT    EPW47148   1.015   1.570   5.152  0.0265 -0.1504  0.2865
11611WAT      O47149   3.195   2.242   5.992 -0.0194 -0.2101 -1.0065
11611WAT     H147150   3.226   2.323   5.981 -1.0388  0.1484 -1.3689
11611WAT     H247151   3.266   2.192   5.987  0.5373  0.6019 -1.4937
11611WAT    EPW47152   3.210   2.246   5.990 -0.0480 -0.4969  0.2177
11612WAT      O47153   4.837   4.896   2.355  0.0372 -0.2086  0.1790
11612WAT     H147154   4.830   4.893   2.442 -1.8994  2.1021  0.2109
11612WAT     H247155   4.776   4.840   2.328  0.9869 -1.3176  0.2553
11612WAT    EPW47156   4.827   4.887   2.364 -0.3204 -0.0574 -0.0268
11613WAT      O47157   1.663   2.714   4.031 -0.7893  0.0598 -0.3212
11613WAT     H147158   1.706   2.699   4.106 -0.7023  0.5964 -0.2632
11613WAT     H247159   1.678   2.641   3.985 -0.8004 -0.2564  0.1582
11613WAT    EPW47160   1.672   2.701   4.035  0.1359  0.7250  0.2113
11614WAT      O47161   6.809   3.060   3.958  0.1522 -0.0704  0.4869
11614WAT     H147162   6.893   3.056   3.982  0.0240 -0.7906  0.8265
11614WAT     H247163   6.788   2.977   3.942 -0.8606 -0.0488  1.6340
11614WAT    EPW47164   6.819   3.047   3.959 -0.2982  0.4523  0.0287
11615WAT      O47165   4.110   4.644   0.287 -0.0635  1.1331 -0.0517
11615WAT     H147166   4.162   4.688   0.233  0.7054 -1.1646 -1.3238
11615WAT     H247167   4.039   4.694   0.294 -0.9062  0.9308 -4.4940
11615WAT    EPW47168   4.107   4.658   0.280  0.0439 -0.2035 -0.3281
11616WAT      O47169   2.079   4.128   6.158  0.1450  0.5743  0.1427
11616WAT     H147170   2.026   4.095   6.098 -0.5295  1.8967 -0.0236
11616WAT     H247171   2.035   4.196   6.189  0.8450  0.4261  1.5442
11616WAT    EPW47172   2.065   4.133   6.154 -0.6000  0.0778  0.8906
11617WAT      O47173   6.449   4.027   2.119  0.4627 -0.0298  0.0830
11617WAT     H147174   6.428   4.089   2.176  0.8820  1.8277 -1.6328
11617WAT     H247175   6.484   3.964   2.168  4.8002  3.1236  1.7151
11617WAT    EPW47176   6.451   4.027   2.134  0.6602  0.3810 -0.1212
11618WAT      O47177   6.918   2.142   1.946 -0.2546  0.1279  0.7671
11618WAT     H147178   6.986   2.154   1.892  1.2433 -0.8363  2.3103
11618WAT     H247179   6.905   2.221   1.980  0.9637  0.0956  1.3722
11618WAT    EPW47180   6.926   2.156   1.943 -0.1767  0.0236  0.0296
11619WAT      O47181   4.709   3.596   1.273 -0.6088 -0.6959 -0.0496
11619WAT     H147182   4.653   3.542   1.234 -1.1495  0.5277 -1.0552
11619WAT     H247183   4.758   3.543   1.321 -0.7771 -2.1454 -1.3787
11619WAT    EPW47184   4.708   3.580   1.274 -0.3017 -0.6614  0.2531
11620WAT      O47185   4.692   1.541   7.143 -0.0885  0.5356  0.0751
11620WAT     H147186   4.655   1.476   7.188  1.1528 -0.2131  0.0609
11620WAT     H247187   4.627   1.599   7.133 -0.3757  0.8784  3.0792
11620WAT    EPW47188   4.677   1.540   7.148  0.3398 -0.1008 -0.1670
11621WAT      O47189   0.716   4.061   1.031 -0.2862 -0.4829 -0.4779
11621WAT     H147190   0.632   4.063   1.005  0.3395 -1.8586 -3.0654
11621WAT     H247191   0.760   4.057   0.955  2.3355  2.7751  0.6617
11621WAT    EPW47192   0.710   4.060   1.016  0.4392 -0.0163  0.0091
11622WAT      O47193   5.120   2.619   1.257  0.1102  0.1128  0.1161
11622WAT     H147194   5.148   2.549   1.301  0.6151  0.0954 -0.2331
11622WAT     H247195   5.049   2.589   1.215  0.1720 -0.1182  0.1728
11622WAT    EPW47196   5.113   2.604   1.258  0.3688 -0.1365  0.6011
11623WAT      O47197   6.439   3.479   4.445 -0.3257 -0.4926 -0.0874
11623WAT     H147198   6.372   3.457   4.394 -0.8182  0.3693  0.1749
11623WAT     H247199   6.466   3.555   4.412  0.6031 -0.8834 -0.2608
11623WAT    EPW47200   6.433   3.487   4.432  0.5029  0.6076  0.0576
11624WAT      O47201   5.268   5.455   2.519  0.6546  0.2119 -0.1760
11624WAT     H147202   5.344   5.438   2.480  0.6666  0.2393 -0.1647
11624WAT     H247203   5.210   5.454   2.454  0.3204 -1.9793  0.0823
11624WAT    EPW47204   5.270   5.452   2.504 -1.0890 -0.9141  0.3796
11625WAT      O47205   2.103   4.905   6.607  0.0927  0.0145 -0.2452
11625WAT     H147206   2.029   4.873   6.640  0.7219 -1.0851  0.1478
11625WAT     H247207   2.094   4.890   6.521  1.3252 -3.5000  0.0880
11625WAT    EPW47208   2.090   4.898   6.599  0.2148  0.7627  0.1479
11626WAT      O47209   0.764   3.299   4.391  0.0985 -0.0042 -0.1127
11626WAT     H147210   0.819   3.246   4.432  0.5434  0.0305 -0.6537
11626WAT     H247211   0.707   3.245   4.352  0.6993 -0.0964 -0.8708
11626WAT    EPW47212   0.763   3.284   4.392  0.0963 -0.4257 -0.1850
11627WAT      O47213   1.797   6.234   3.269 -0.0783  0.4420 -0.4179
11627WAT     H147214   1.717   6.209   3.244 -1.1573  1.6830  1.4777
11627WAT     H247215   1.807   6.195   3.347 -0.0544  2.4215  0.6401
11627WAT    EPW47216   1.786   6.225   3.277  0.4557  0.5400 -0.6087
11628WAT      O47217   1.487   4.264   6.193  0.1482 -0.2248  0.3510
11628WAT     H147218   1.525   4.290   6.119 -0.3095  1.8782  0.7607
11628WAT     H247219   1.528   4.311   6.255 -0.5956 -0.6740  1.2156
11628WAT    EPW47220   1.499   4.275   6.192  0.7563 -0.0067  0.5324
11629WAT      O47221   2.550   0.272   5.446  0.0417 -0.2297  0.1457
11629WAT     H147222   2.540   0.239   5.527 -0.5707 -1.0560 -0.2548
11629WAT     H247223   2.587   0.206   5.402 -0.4511 -0.0935 -0.4784
11629WAT    EPW47224   2.554   0.257   5.452  0.2060  0.1728  0.1417
11630WAT      O47225   5.975   3.296   0.771  0.0626  0.0297 -0.1402
11630WAT     H147226   5.932   3.312   0.697 -1.8237 -1.4578  0.5235
11630WAT     H247227   6.051   3.264   0.744 -0.6182 -0.5571 -1.4845
11630WAT    EPW47228   5.980   3.293   0.756 -0.5245 -0.6537 -0.0405
11631WAT      O47229   7.436   2.625   0.230 -0.1235 -0.2725 -0.1356
11631WAT     H147230   7.498   2.681   0.254 -0.0200 -0.0506 -0.9048
11631WAT     H247231   7.480   2.554   0.206 -0.1696 -0.1663 -0.5434
11631WAT    EPW47232   7.452   2.622   0.230 -0.0877 -0.4318 -0.4188
11632WAT      O47233   6.167   0.988   3.828 -0.0072  0.2877 -0.1506
11632WAT     H147234   6.085   0.958   3.832 -0.2542  1.0744  1.6904
11632WAT     H247235   6.210   0.923   3.788 -1.2754 -0.7193  0.0294
11632WAT    EPW47236   6.161   0.974   3.823  0.7394 -0.0025  0.6052
11633WAT      O47237   1.997   7.545   0.235  0.0838 -0.4436  0.1811
11633WAT     H147238   2.047   7.557   0.165  0.0354 -3.0812 -0.3864
11633WAT     H247239   1.927   7.596   0.219  1.0666  0.7114 -0.5847
11633WAT    EPW47240   1.994   7.555   0.222 -0.1827  0.5042 -0.4152
11634WAT      O47241   5.217   3.993   4.622 -0.1190 -0.2852  0.1630
11634WAT     H147242   5.182   3.947   4.688  0.3872  0.3098  0.8614
11634WAT     H247243   5.302   3.975   4.627  0.0351  0.4227  0.2091
11634WAT    EPW47244   5.224   3.983   4.633 -0.0049  0.1634 -0.2758
11635WAT      O47245   4.928   2.720   7.405 -0.2756  0.7348  0.1526
11635WAT     H147246   4.985   2.724   7.471  1.5042 -0.3050 -1.2348
11635WAT     H247247   4.901   2.637   7.406 -0.0048  0.6363 -0.6155
11635WAT    EPW47248   4.932   2.708   7.415  0.0885 -0.0827 -0.5718
11636WAT      O47249   4.895   5.070   5.140 -0.4636 -0.2697 -0.2016
11636WAT     H147250   4.832   5.009   5.139 -0.3444 -0.6955  3.6727
11636WAT     H247251   4.965   5.027   5.169 -0.1645  1.4324  1.8455
11636WAT    EPW47252   4.896   5.055   5.144 -0.2579  0.2767  0.4930
11637WAT      O47253   2.558   3.503   5.579 -0.0520 -0.1651  0.5013
11637WAT     H147254   2.549   3.557   5.647 -1.8418 -0.1194  0.2522
11637WAT     H247255   2.518   3.544   5.514 -0.1525 -1.1331 -0.0670
11637WAT    EPW47256   2.551   3.517   5.579  0.5163  0.4602  0.1991
11638WAT      O47257   4.469   5.925   1.790  0.1727 -0.0730 -0.5987
11638WAT     H147258   4.508   5.859   1.748  1.0031  0.6920 -1.0478
11638WAT     H247259   4.469   5.989   1.731 -1.4566  0.0703 -0.4923
11638WAT    EPW47260   4.474   5.924   1.775  0.2024  0.0306  0.6391
11639WAT      O47261   4.750   4.056   0.451 -0.2276 -0.2189  0.0256
11639WAT     H147262   4.756   3.970   0.469 -2.1761 -0.6475 -1.0908
11639WAT     H247263   4.818   4.090   0.494  1.1486 -2.4240 -0.2063
11639WAT    EPW47264   4.761   4.048   0.460 -0.1379 -0.1635  0.0284
11640WAT      O47265   7.253   3.317   2.775 -0.2835  0.1789  0.3248
11640WAT     H147266   7.311   3.358   2.826 -0.0968  1.2998 -0.7435
11640WAT     H247267   7.187   3.374   2.769 -0.3878 -0.0101 -0.4951
11640WAT    EPW47268   7.252   3.332   2.781 -0.1447 -0.1848  0.6088
11641WAT      O47269   4.105   7.104   0.165 -0.0074  0.0746  0.2227
11641WAT     H147270   4.189   7.079   0.161 -0.1784 -0.4409 -0.3597
11641WAT     H247271   4.109   7.188   0.185  0.6690  0.1593 -0.2409
11641WAT    EPW47272   4.118   7.112   0.167  0.3284  0.5787  0.1678
11642WAT      O47273   6.005   0.977   2.295  0.1697 -0.0685 -0.4477
11642WAT     H147274   5.943   1.012   2.346 -0.0017 -1.6422  0.4700
11642WAT     H247275   6.074   1.029   2.309 -0.6054  1.0404 -0.6251
11642WAT    EPW47276   6.006   0.990   2.304  0.6773 -1.1810 -0.3834
11643WAT      O47277   3.162   4.432   6.021 -0.1755  0.2748  0.1446
11643WAT     H147278   3.121   4.413   5.946 -1.7383  0.2142  0.9656
11643WAT     H247279   3.183   4.516   6.012 -0.7041  0.3760 -0.2193
11643WAT    EPW47280   3.159   4.442   6.009 -0.1412  0.7426  0.2159
11644WAT      O47281   5.143   3.949   0.584 -0.8047 -0.0031 -0.1276
11644WAT     H147282   5.132   4.026   0.623 -1.1342 -0.3375  0.4521
11644WAT     H247283   5.180   3.900   0.646  4.3039  1.0484 -1.8726
11644WAT    EPW47284   5.147   3.953   0.599  0.2373 -0.3729 -0.0217
11645WAT      O47285   0.689   2.446   7.122 -0.2583 -0.2539  0.3041
11645WAT     H147286   0.699   2.492   7.195  0.8843  0.5422 -0.3154
11645WAT     H247287   0.770   2.442   7.089 -0.8134 -0.2121 -1.1417
11645WAT    EPW47288   0.703   2.452   7.128  0.5578 -0.2180  0.8506
11646WAT      O47289   0.910   4.427   1.225  0.5154  0.1150 -0.7359
11646WAT     H147290   0.908   4.340   1.222 -0.4850  0.1336 -2.5938
11646WAT     H247291   0.918   4.446   1.309  2.2254 -1.7782 -0.4086
11646WAT    EPW47292   0.911   4.417   1.237 -0.4405  0.5339  0.6119
11647WAT      O47293   3.782   4.642   0.735 -0.2333 -0.0650 -0.2760
11647WAT     H147294   3.863   4.630   0.707 -0.6568  0.3430 -1.7333
11647WAT     H247295   3.765   4.569   0.781  1.5059  0.5758  1.5239
11647WAT    EPW47296   3.791   4.630   0.738  0.3145  0.0337 -0.2929
11648WAT      O47297   5.930   2.185   6.155  1.0153  0.2036  0.5412
11648WAT     H147298   5.985   2.124   6.187  0.9220  1.0707  2.4704
11648WAT     H247299   5.983   2.237   6.109  1.2626 -0.7045 -0.2525
11648WAT    EPW47300   5.946   2.183   6.153 -0.5585 -0.6445 -0.9189
11649WAT      O47301   0.727   3.909   3.654 -0.2012  0.2360 -0.7574
11649WAT     H147302   0.667   3.852   3.627  0.3913  0.0346 -1.6884
11649WAT     H247303   0.739   3.889   3.738 -1.6197  0.4570 -0.4805
11649WAT    EPW47304   0.720   3.898   3.662  0.0253 -0.4054 -0.4480
11650WAT      O47305   4.544   3.456   6.123  0.8263 -0.3243  0.2330
11650WAT     H147306   4.511   3.394   6.071  0.6298  0.8221 -1.0577
11650WAT     H247307   4.608   3.490   6.075  0.2586  1.1640  0.4874
11650WAT    EPW47308   4.549   3.452   6.108 -0.0962 -0.0950 -0.1234
11651WAT      O47309   3.917   5.345   2.587 -0.0852  0.4447  0.0376
11651WAT     H147310   3.898   5.293   2.520 -0.9901  1.7023 -0.7434
11651WAT     H247311   4.000   5.327   2.605 -0.9175 -2.8835  1.3428
11651WAT    EPW47312   3.926   5.335   2.580  0.2637  0.8886 -0.3434
11652WAT      O47313   5.227   6.036   4.894 -0.0703 -0.4028  0.4057
11652WAT     H147314   5.236   6.031   4.808 -1.3665 -0.3253  0.2350
11652WAT     H247315   5.160   5.983   4.911 -1.6969  1.6517  0.9666
11652WAT    EPW47316   5.218   6.028   4.884  0.3744 -0.1476  0.1677
11653WAT      O47317   3.734   0.036   7.217 -0.1956 -0.2881  0.2225
11653WAT     H147318   3.784  -0.034   7.205 -1.6559 -1.0975 -1.7442
11653WAT     H247319   3.764   0.071   7.291  2.7791 -1.0706 -0.5024
11653WAT    EPW47320   3.746   0.030   7.226  0.1581 -0.1868  0.3819
11654WAT      O47321   1.983   4.062   0.092 -0.2389 -0.2404 -0.0661
11654WAT     H147322   2.035   4.104   0.035  2.2315  0.6626  2.6161
11654WAT     H247323   1.971   3.984   0.055  1.4607  0.2052 -1.7251
11654WAT    EPW47324   1.989   4.057   0.078  0.6163  0.3618  0.0277
11655WAT      O47325   4.855   1.150   2.111 -0.3566 -0.0944 -0.1224
11655WAT     H147326   4.907   1.128   2.045  0.1396 -0.8146  0.4936
11655WAT     H247327   4.778   1.162   2.072 -0.2200 -1.1182 -0.7537
11655WAT    EPW47328   4.851   1.148   2.095 -0.1268  0.1714 -0.1052
11656WAT      O47329   1.393   1.761   1.080 -0.7407 -0.1199  0.1404
11656WAT     H147330   1.418   1.803   1.008 -0.7912  0.4757  0.4592
11656WAT     H247331   1.309   1.741   1.063 -1.2677  1.4673  0.6536
11656WAT    EPW47332   1.384   1.764   1.067 -0.1477 -0.1555  0.2750
11657WAT      O47333   7.195   7.254   7.183 -0.0549 -0.2853  0.1900
11657WAT     H147334   7.268   7.210   7.199  0.9368  1.8164  2.1248
11657WAT     H247335   7.218   7.311   7.121 -0.7268 -1.0677 -0.8044
11657WAT    EPW47336   7.209   7.256   7.176  0.0898  0.3794  0.4029
11658WAT      O47337   5.254   5.364   5.964 -0.0156  0.0304  0.1306
11658WAT     H147338   5.205   5.430   5.995 -0.7678 -0.2711 -0.4025
11658WAT     H247339   5.210   5.293   5.989  0.0681 -0.2409 -0.4814
11658WAT    EPW47340   5.240   5.363   5.973 -0.0957  0.1965 -0.2918
11659WAT      O47341   0.106   3.830   3.554 -0.7745  0.1662 -0.1078
11659WAT     H147342   0.067   3.907   3.543  1.7276  1.9768  2.4881
11659WAT     H247343   0.118   3.825   3.640 -1.4202 -3.5350 -0.0698
11659WAT    EPW47344   0.102   3.841   3.565 -0.1365 -0.3405 -0.1296
11660WAT      O47345   6.391   3.559   4.990  0.4180  0.5467  0.5042
11660WAT     H147346   6.369   3.492   5.041  1.6483  0.1299  0.5276
11660WAT     H247347   6.403   3.522   4.912 -0.0546  0.9467  0.2338
11660WAT    EPW47348   6.390   3.544   4.986  0.0793  0.8183  0.6136
11661WAT      O47349   4.059   2.291   1.568  0.5862  0.1239  0.5260
11661WAT     H147350   3.982   2.306   1.530  0.5766  1.3043  0.9632
11661WAT     H247351   4.057   2.206   1.587  0.2440 -0.2987 -1.2879
11661WAT    EPW47352   4.047   2.281   1.565 -0.1593  0.0369  0.2932
11662WAT      O47353   4.284   0.054   4.351  0.4429  0.2595  0.5650
11662WAT     H147354   4.295  -0.008   4.291  0.5861 -1.5421  2.3672
11662WAT     H247355   4.254   0.122   4.305 -1.0010 -1.5365 -1.2858
11662WAT    EPW47356   4.281   0.055   4.335 -0.0340 -0.5666  0.8220
11663WAT      O47357   1.034   6.562   1.857  0.1138  0.2261  0.1707
11663WAT     H147358   1.001   6.502   1.910  0.3218  0.7918  0.9519
11663WAT     H247359   0.965   6.609   1.834  0.2203  0.8169  1.0352
11663WAT    EPW47360   1.019   6.560   1.861 -0.5199  0.3541 -0.4009
11664WAT      O47361   5.641   5.321   6.579 -0.2777 -0.2621 -0.4594
11664WAT     H147362   5.606   5.320   6.499 -0.7854 -3.0995 -0.2868
11664WAT     H247363   5.573   5.312   6.632  0.0456  1.6677  0.3895
11664WAT    EPW47364   5.626   5.320   6.575 -0.0952  0.0742 -0.4931
11665WAT      O47365   0.358   5.738   4.544  0.1881 -0.0222 -0.2554
11665WAT     H147366   0.287   5.713   4.501  0.2844 -0.8102  0.0258
11665WAT     H247367   0.398   5.792   4.488  0.8573 -1.8203 -1.6364
11665WAT    EPW47368   0.353   5.742   4.529 -0.1650  0.2071 -0.1319
11666WAT      O47369   2.814   3.071   0.744  0.2863 -0.3074 -0.0998
11666WAT     H147370   2.871   3.057   0.680  1.5835  1.6786  0.5407
11666WAT     H247371   2.736   3.064   0.704  1.0359  0.1719 -1.7278
11666WAT    EPW47372   2.811   3.068   0.729  0.5848  0.0800  0.3057
11667WAT      O47373   4.392   1.565   5.874  0.4053 -0.2531 -0.2128
11667WAT     H147374   4.344   1.531   5.938 -0.5817 -2.1380 -1.8517
11667WAT     H247375   4.449   1.502   5.855  2.7920  1.4325  0.7806
11667WAT    EPW47376   4.393   1.550   5.881 -0.3843 -0.6059 -0.2289
11668WAT      O47377   6.650   7.413   6.673 -0.5008 -0.0756  0.2646
11668WAT     H147378   6.680   7.483   6.717 -0.8429  0.0186  0.3493
11668WAT     H247379   6.713   7.353   6.685 -1.1598 -0.4811  1.9779
11668WAT    EPW47380   6.664   7.414   6.681 -0.8497 -0.2302  0.0004
11669WAT      O47381   1.646   5.113   1.090 -0.4708 -0.3919  0.0823
11669WAT     H147382   1.715   5.156   1.121 -0.7608  0.0435  0.1357
11669WAT     H247383   1.605   5.173   1.040 -1.3354 -0.3412  0.8306
11669WAT    EPW47384   1.650   5.129   1.087  0.5792  0.3765 -0.4084
11670WAT      O47385   4.510   2.661   5.321  0.4268 -0.1125 -0.3626
11670WAT     H147386   4.461   2.686   5.253 -0.2056  0.2253  0.1989
11670WAT     H247387   4.494   2.576   5.327 -1.0848  0.1971  0.5546
11670WAT    EPW47388   4.500   2.652   5.312  0.1678 -0.1788  0.5765
11671WAT      O47389   5.560   5.482   4.892 -0.0642 -0.1139 -0.0553
11671WAT     H147390   5.541   5.423   4.832  0.3215 -0.9988  0.6670
11671WAT     H247391   5.630   5.449   4.932  0.4261  1.0374  0.0858
11671WAT    EPW47392   5.568   5.469   4.889 -0.2599 -0.1563  0.2323
11672WAT      O47393   4.931   2.021   1.158  0.1578 -0.1674  0.1392
11672WAT     H147394   4.984   2.025   1.089  0.7522 -1.0866  0.5276
11672WAT     H247395   4.986   2.021   1.226 -0.4039  0.2624  0.6020
11672WAT    EPW47396   4.947   2.022   1.158  0.9954  0.1450 -0.4885
11673WAT      O47397   2.745   2.176   3.019 -0.3253 -0.2608 -0.1424
11673WAT     H147398   2.750   2.216   2.941 -0.8567 -0.2463 -0.1717
11673WAT     H247399   2.713   2.237   3.072 -1.2371 -0.6586 -0.2085
11673WAT    EPW47400   2.741   2.191   3.015  0.1554  0.3605  0.6682
11674WAT      O47401   2.725   0.895   6.796  0.4804  0.4219  0.6499
11674WAT     H147402   2.770   0.866   6.864  2.2623  1.1790 -0.1136
11674WAT     H247403   2.780   0.953   6.759 -0.6490  0.4860 -1.0569
11674WAT    EPW47404   2.740   0.900   6.800 -0.2955  0.2014 -0.7083
11675WAT      O47405   1.062   2.229   4.125 -0.0302 -0.3423 -0.2541
11675WAT     H147406   1.031   2.148   4.137  0.1691 -0.5518 -1.0599
11675WAT     H247407   1.131   2.233   4.179 -0.6147 -0.3555  0.5161
11675WAT    EPW47408   1.068   2.218   4.135  0.0678 -0.0708  0.3093
11676WAT      O47409   2.567   4.690   5.393 -0.0984 -0.0212 -0.0637
11676WAT     H147410   2.573   4.651   5.315 -0.3557  0.0395 -0.1148
11676WAT     H247411   2.647   4.682   5.426  0.8254  2.2749 -1.4492
11676WAT    EPW47412   2.580   4.683   5.387  0.6482 -0.2603  0.3059
11677WAT      O47413   5.615   2.490   5.336 -0.1508  0.2042  0.0487
11677WAT     H147414   5.577   2.418   5.370  4.3016 -1.1875  2.9267
11677WAT     H247415   5.579   2.555   5.381 -0.6748 -0.7598  1.0778
11677WAT    EPW47416   5.604   2.489   5.348  0.5732 -0.1825 -0.3430
11678WAT      O47417   1.154   3.879   7.112  0.0453 -0.1677 -0.0295
11678WAT     H147418   1.088   3.902   7.060 -0.6843 -0.4451  0.7566
11678WAT     H247419   1.121   3.812   7.158  0.5905  0.2295  0.9553
11678WAT    EPW47420   1.139   3.872   7.111 -0.0664 -0.3471  0.0857
11679WAT      O47421   0.379   3.062   1.476  0.5709 -0.2442  0.0086
11679WAT     H147422   0.335   3.104   1.538  0.4807 -2.0060  1.2237
11679WAT     H247423   0.374   3.115   1.407  0.3394  1.6036  1.3709
11679WAT    EPW47424   0.372   3.076   1.475 -0.4426 -0.3392 -0.4320
11680WAT      O47425   3.841   0.529   4.089  0.0547 -0.1451  0.0232
11680WAT     H147426   3.821   0.536   4.174  0.4429  0.7697  0.0475
11680WAT     H247427   3.878   0.606   4.070 -0.1312 -0.3004 -1.0063
11680WAT    EPW47428   3.844   0.541   4.099  0.3498  0.2906 -0.0826
11681WAT      O47429   1.932   3.091   3.541 -0.4550 -0.4452  0.3826
11681WAT     H147430   1.999   3.038   3.560  0.6681  0.3123 -1.1690
11681WAT     H247431   1.935   3.096   3.453 -1.3872  1.0703  0.4056
11681WAT    EPW47432   1.943   3.083   3.531 -0.1082 -0.0961  0.0546
11682WAT      O47433   2.077   6.213   4.946 -1.1905  0.5224 -0.6710
11682WAT     H147434   2.017   6.276   4.955  1.1333  3.0943 -1.7603
11682WAT     H247435   2.114   6.231   4.869  1.5858 -0.3164  0.3671
11682WAT    EPW47436   2.073   6.225   4.936  0.1593 -0.2775 -0.0239
11683WAT      O47437   6.983   1.852   7.101  0.3115  0.2705 -0.1333
11683WAT     H147438   7.039   1.915   7.080  1.0770 -0.4475 -0.3209
11683WAT     H247439   6.929   1.848   7.032  1.4389 -0.5640 -0.9938
11683WAT    EPW47440   6.983   1.861   7.088 -1.0453  0.3503 -0.0874
11684WAT      O47441   5.600   1.641   3.262 -0.0740  0.0295 -0.3010
11684WAT     H147442   5.559   1.651   3.339  0.0589  1.3041 -0.3616
11684WAT     H247443   5.649   1.570   3.273  0.1635  0.3588  0.9077
11684WAT    EPW47444   5.601   1.632   3.275 -0.8834  0.2902  0.6345
11685WAT      O47445   7.555   6.624   4.147  0.4322 -0.2538 -0.8290
11685WAT     H147446   7.535   6.597   4.066  0.3639 -1.8019 -0.3240
11685WAT     H247447   7.607   6.561   4.177 -0.2676 -0.1491  0.6613
11685WAT    EPW47448   7.560   6.610   4.139 -0.3022  0.4305  0.0703
11686WAT      O47449   2.571   0.562   0.181  0.0205 -0.0888  0.1307
11686WAT     H147450   2.518   0.496   0.161  0.9158 -0.6592 -0.4507
11686WAT     H247451   2.622   0.569   0.110  0.5285  0.6313  0.5536
11686WAT    EPW47452   2.571   0.553   0.167 -0.0114 -0.1017  0.0968
11687WAT      O47453   6.249   2.775   0.559 -0.6038 -0.1003 -0.3960
11687WAT     H147454   6.265   2.791   0.643 -1.7485  0.4626 -0.2729
11687WAT     H247455   6.276   2.847   0.518  2.7475 -1.4524 -0.9298
11687WAT    EPW47456   6.256   2.788   0.565  0.4120  0.0495 -0.0741
11688WAT      O47457   2.372   6.027   2.396  0.6716  0.1977 -0.0931
11688WAT     H147458   2.387   6.083   2.331 -2.8836  0.4466 -0.8769
11688WAT     H247459   2.335   5.959   2.356 -2.7423  0.8410  1.6423
11688WAT    EPW47460   2.369   6.025   2.381  0.3234  0.1084  0.4571
11689WAT      O47461   5.831   5.970   7.096 -0.0404  0.2330 -0.0172
11689WAT     H147462   5.897   5.925   7.060  1.1122 -0.1584  2.3514
11689WAT     H247463   5.800   6.017   7.030  1.3366 -1.0371 -1.6847
11689WAT    EPW47464   5.836   5.970   7.081  0.1030 -0.3464  0.0810
11690WAT      O47465   4.243   1.137   6.874  0.1580  0.3997 -0.0147
11690WAT     H147466   4.318   1.177   6.856 -0.0580 -0.0151 -2.0709
11690WAT     H247467   4.193   1.201   6.905  0.8079  1.0628 -0.2963
11690WAT    EPW47468   4.247   1.152   6.876  0.1436 -0.1566  0.4233
11691WAT      O47469   2.701   0.713   2.752  0.0281 -0.4986  0.4932
11691WAT     H147470   2.739   0.642   2.717 -0.3849  0.3221 -1.8462
11691WAT     H247471   2.710   0.773   2.689 -0.4689  1.2592  2.0252
11691WAT    EPW47472   2.708   0.711   2.737 -0.1566 -0.2844  0.2732
11692WAT      O47473   2.321   3.180   5.857 -0.3138 -0.6972  0.0617
11692WAT     H147474   2.375   3.197   5.790 -0.5644 -2.4825 -0.6632
11692WAT     H247475   2.248   3.223   5.836 -0.4980 -1.4855 -1.0051
11692WAT    EPW47476   2.318   3.189   5.844 -0.3021 -0.0867 -0.2662
11693WAT      O47477   2.406   1.515   2.382 -0.3535  0.6092 -0.4563
11693WAT     H147478   2.322   1.513   2.405 -0.1889  2.0078  0.3632
11693WAT     H247479   2.448   1.495   2.456  0.0661  1.4361 -0.4609
11693WAT    EPW47480   2.400   1.512   2.396  0.3062  0.1980 -0.1961
11694WAT      O47481   4.520   3.988   2.517 -0.1581 -0.1344  0.2354
11694WAT     H147482   4.547   4.058   2.472 -2.7524  0.1241 -1.1322
11694WAT     H247483   4.494   4.022   2.593  0.0682  0.1373  0.1942
11694WAT    EPW47484   4.520   4.003   2.522 -0.5962 -0.2198  0.0213
11695WAT      O47485   2.930   6.973   1.592  0.2092 -0.2111 -0.2555
11695WAT     H147486   2.997   6.998   1.642 -1.0783 -0.0751  1.4855
11695WAT     H247487   2.935   7.025   1.522  1.7425 -0.0297 -0.0416
11695WAT    EPW47488   2.941   6.984   1.589 -0.0604  0.2893  0.1541
11696WAT      O47489   7.026   5.357   5.032 -0.4352 -0.4552 -0.0050
11696WAT     H147490   6.955   5.397   5.065  0.3279 -0.2824  1.4840
11696WAT     H247491   6.995   5.316   4.962 -2.0300 -0.4377  0.6468
11696WAT    EPW47492   7.011   5.357   5.026 -0.1314 -0.9253  0.0312
11697WAT      O47493   1.861   1.221   4.807 -0.6157 -0.0595 -0.4870
11697WAT     H147494   1.873   1.135   4.796  1.7656  0.4376 -2.5458
11697WAT     H247495   1.902   1.238   4.882 -0.5661 -0.6108 -0.3844
11697WAT    EPW47496   1.869   1.211   4.817 -0.2673 -0.1187  0.9467
11698WAT      O47497   3.803   3.957   1.249 -0.1187 -0.6785  0.2572
11698WAT     H147498   3.732   3.911   1.266  0.4311 -1.7227 -0.1643
11698WAT     H247499   3.860   3.932   1.311  0.5729 -1.5094 -0.6685
11698WAT    EPW47500   3.801   3.946   1.260  1.0722 -0.2862 -0.1699
11699WAT      O47501   2.422   6.289   6.923  0.4155 -0.5703 -0.6330
11699WAT     H147502   2.493   6.335   6.899  0.3489 -0.0954  0.0579
11699WAT     H247503   2.357   6.345   6.909  0.3552 -0.3512  0.4399
11699WAT    EPW47504   2.423   6.304   6.917 -0.0846  0.0656  0.1279
11700WAT      O47505   3.006   3.033   4.066  0.3260  0.7066  0.0353
11700WAT     H147506   3.037   2.954   4.084  0.7326  0.9354  0.3648
11700WAT     H247507   3.072   3.086   4.087  0.0907  1.1259 -0.2673
11700WAT    EPW47508   3.020   3.030   4.072  0.0732  0.0437 -0.1282
11701WAT      O47509   3.283   7.480   0.527 -0.2261 -0.0004  0.2811
11701WAT     H147510   3.305   7.561   0.549 -1.4631 -0.2492  2.7663
11701WAT     H247511   3.345   7.431   0.563  0.2731 -0.2219 -0.8388
11701WAT    EPW47512   3.295   7.485   0.535  0.1511 -0.1065  0.5254
11702WAT      O47513   2.582   4.087   6.156  0.3164 -0.4365  0.3493
11702WAT     H147514   2.557   4.102   6.239 -1.8688 -3.0822  0.3055
11702WAT     H247515   2.522   4.130   6.109  0.1483 -0.8608  0.1735
11702WAT    EPW47516   2.570   4.096   6.162  0.3442  0.0609 -0.1655
11703WAT      O47517   5.491   7.398   5.597 -0.0678 -0.4856  0.7479
11703WAT     H147518   5.567   7.413   5.638 -0.5907 -0.5808  1.8032
11703WAT     H247519   5.467   7.478   5.569  1.4415 -0.7509 -1.5575
11703WAT    EPW47520   5.499   7.412   5.599 -0.7680  0.3280  0.0893
11704WAT      O47521   5.320   1.918   3.434 -0.6687  0.0483  0.3388
11704WAT     H147522   5.366   1.968   3.488  0.4758 -1.1427  0.5121
11704WAT     H247523   5.282   1.975   3.380  1.2917  1.0857 -0.0126
11704WAT    EPW47524   5.321   1.933   3.434  0.2407  0.6677 -0.1632
11705WAT      O47525   4.472   0.348   5.105  0.2360 -0.0775 -0.4575
11705WAT     H147526   4.510   0.401   5.046 -1.0101 -0.4836 -1.6907
11705WAT     H247527   4.460   0.274   5.060  0.6732 -0.9393  0.8174
11705WAT    EPW47528   4.475   0.345   5.089  0.4662  0.3352  0.2190
11706WAT      O47529   2.277   5.169   3.763  0.6775 -0.1827 -0.0006
11706WAT     H147530   2.195   5.169   3.733  0.5511 -0.2516  0.3400
11706WAT     H247531   2.270   5.131   3.841  0.8645  0.7627  0.4886
11706WAT    EPW47532   2.263   5.163   3.770  0.3486 -0.4197 -0.5027
11707WAT      O47533   7.425   5.080   2.112 -0.0873 -0.2163  0.1456
11707WAT     H147534   7.495   5.047   2.073  0.0647 -1.4145  1.3635
11707WAT     H247535   7.444   5.075   2.197 -1.2608  0.3539  0.4665
11707WAT    EPW47536   7.438   5.075   2.119  0.1697  0.0620 -0.2408
11708WAT      O47537   5.404   5.283   4.044 -0.1260 -0.5464  0.7342
11708WAT     H147538   5.317   5.281   4.050 -0.2172  0.5674  0.0454
11708WAT     H247539   5.418   5.311   3.963  0.8811 -0.8635  0.7907
11708WAT    EPW47540   5.393   5.287   4.033  0.1825  0.0544 -0.3249
11709WAT      O47541   0.355   7.000   5.291  0.0582 -0.4120 -0.4399
11709WAT     H147542   0.281   7.029   5.257 -0.6292 -2.0780 -0.4513
11709WAT     H247543   0.341   7.004   5.377 -0.3830 -1.4656 -0.4449
11709WAT    EPW47544   0.342   7.005   5.298  0.0559 -0.3212  0.2011
11710WAT      O47545   1.908   7.495   2.700 -0.1898  0.3303 -0.5490
11710WAT     H147546   1.885   7.476   2.619 -1.7154  0.2753 -0.1297
11710WAT     H247547   1.950   7.424   2.727 -0.1202  0.1509 -1.1207
11710WAT    EPW47548   1.911   7.482   2.692 -0.1737 -0.1402  0.5678
11711WAT      O47549   7.433   3.661   6.282 -0.0078  0.0357  0.3272
11711WAT     H147550   7.472   3.733   6.251  0.0504 -0.7665 -1.5912
11711WAT     H247551   7.348   3.678   6.271 -0.0295  0.1038  0.5894
11711WAT    EPW47552   7.426   3.674   6.275  0.1350  0.0362  0.2850
11712WAT      O47553   7.594   1.284   5.275 -0.8071 -0.4533 -0.1992
11712WAT     H147554   7.566   1.242   5.346 -2.8648 -0.2777 -0.8471
11712WAT     H247555   7.596   1.222   5.214 -0.0759 -0.3783 -0.2664
11712WAT    EPW47556   7.590   1.269   5.277  0.0757 -0.6913  0.2115
11713WAT      O47557   1.451   4.217   0.022 -0.3668  0.2447 -0.6394
11713WAT     H147558   1.459   4.278   0.084  4.7925  0.5453 -1.1787
11713WAT     H247559   1.416   4.260  -0.045 -2.0493  0.9888  0.6331
11713WAT    EPW47560   1.447   4.232   0.022  0.4585 -0.6317 -0.9183
11714WAT      O47561   2.747   4.710   4.690 -0.4158  0.2954 -0.1563
11714WAT     H147562   2.763   4.694   4.606  0.9060  0.2185  0.0924
11714WAT     H247563   2.756   4.632   4.728 -1.8425  0.1611 -0.0366
11714WAT    EPW47564   2.751   4.696   4.683 -0.0165 -0.2625  0.2728
11715WAT      O47565   5.487   5.228   0.927 -0.0830  0.3612 -0.4402
11715WAT     H147566   5.412   5.234   0.883  0.9091 -0.0575 -2.2805
11715WAT     H247567   5.526   5.305   0.912 -0.1642  0.6442  0.6450
11715WAT    EPW47568   5.481   5.241   0.919 -0.0459 -0.6160 -0.4796
11716WAT      O47569   6.941   2.442   5.462  0.1697  0.7127  0.6607
11716WAT     H147570   6.872   2.472   5.417  0.3741  0.3224  0.0803
11716WAT     H247571   6.981   2.389   5.406  0.6103  0.4636  1.1985
11716WAT    EPW47572   6.936   2.438   5.447 -0.4027 -0.1739 -0.8372
11717WAT      O47573   1.859   5.715   6.468 -0.0677 -0.3781  0.1363
11717WAT     H147574   1.946   5.723   6.459  0.0075 -1.2268 -0.0071
11717WAT     H247575   1.842   5.764   6.538  0.3452  0.7404 -0.5177
11717WAT    EPW47576   1.869   5.723   6.477 -0.6424 -0.7134 -0.5578
11718WAT      O47577   3.939   6.912   7.058 -0.1304  0.0651  0.3632
11718WAT     H147578   3.947   6.921   7.144 -0.5005  1.1567  0.2966
11718WAT     H247579   3.984   6.979   7.025  1.0634 -1.0334 -0.3553
11718WAT    EPW47580   3.947   6.923   7.066  0.3439  0.4329  0.5270
11719WAT      O47581   0.183   2.834   5.434  0.1881 -0.0600 -0.0328
11719WAT     H147582   0.108   2.797   5.456 -0.3221  1.8408  1.6957
11719WAT     H247583   0.176   2.916   5.465  2.3121  0.6761 -1.2521
11719WAT    EPW47584   0.171   2.841   5.442  0.5565  0.3180  0.7164
11720WAT      O47585   2.664   5.417   4.818 -0.4571 -0.0416 -0.4204
11720WAT     H147586   2.714   5.345   4.824 -0.8219 -0.4201 -1.6659
11720WAT     H247587   2.698   5.460   4.750  0.0380  1.2239  0.5733
11720WAT    EPW47588   2.676   5.413   4.809 -0.8583  0.0109  0.2213
11721WAT      O47589   1.185   4.620   2.480  0.0219 -0.1465 -0.0077
11721WAT     H147590   1.151   4.698   2.499 -0.7626 -0.4068 -0.3468
11721WAT     H247591   1.233   4.635   2.409  0.5398  0.1885  0.3967
11721WAT    EPW47592   1.187   4.634   2.473  0.4416 -0.0491 -0.4305
11722WAT      O47593   4.655   0.777   2.014  0.1261 -0.4276  0.3717
11722WAT     H147594   4.709   0.777   2.082  0.2199 -0.0711  0.2986
11722WAT     H247595   4.702   0.813   1.950 -0.3902  0.4667  0.4700
11722WAT    EPW47596   4.670   0.782   2.015 -0.5147  0.0658 -0.3357
11723WAT      O47597   5.594   3.373   4.139 -0.0001  0.4548 -0.1303
11723WAT     H147598   5.680   3.377   4.155  0.0586 -1.5631  0.4145
11723WAT     H247599   5.584   3.419   4.066  1.5528  0.7383 -0.1938
11723WAT    EPW47600   5.606   3.380   4.131 -0.0881 -0.4079 -0.2163
11724WAT      O47601   1.731   0.495   6.843 -0.5957 -0.5440  0.0017
11724WAT     H147602   1.762   0.551   6.902  0.4272 -2.0174  0.9378
11724WAT     H247603   1.794   0.436   6.836 -1.8216 -1.8375 -0.5793
11724WAT    EPW47604   1.745   0.495   6.851  0.2501  0.0821 -0.2870
11725WAT      O47605   7.063   1.296   5.894  0.3840  0.1760  0.4141
11725WAT     H147606   6.981   1.268   5.904 -0.0034  0.1352 -2.2484
11725WAT     H247607   7.102   1.230   5.852  1.0525  1.2116 -0.6453
11725WAT    EPW47608   7.057   1.282   5.890 -0.0339  0.6314  0.6340
11726WAT      O47609   0.661   6.896   5.464 -0.1908  0.3225 -0.3124
11726WAT     H147610   0.579   6.920   5.481 -0.7543  0.0019 -2.3158
11726WAT     H247611   0.658   6.869   5.381  1.8630 -0.0937 -0.3116
11726WAT    EPW47612   0.649   6.895   5.454  0.1957  0.1603 -0.1380
11727WAT      O47613   3.350   0.727   5.298  0.3970 -0.0416  0.4368
11727WAT     H147614   3.323   0.670   5.359 -0.1505  1.0763  1.2726
11727WAT     H247615   3.278   0.740   5.250  1.2974 -2.5328 -1.8939
11727WAT    EPW47616   3.335   0.720   5.300  0.3383  0.1742 -0.2023
11728WAT      O47617   4.576   4.458   5.633 -0.6724  1.1496 -0.3231
11728WAT     H147618   4.599   4.375   5.619  0.1211  1.3071 -0.0370
11728WAT     H247619   4.489   4.456   5.635 -0.6689  0.4224 -0.8795
11728WAT    EPW47620   4.566   4.446   5.631  0.1705 -0.2681  0.1545
11729WAT      O47621   0.874   4.163   1.915 -0.4384 -0.6075  0.3552
11729WAT     H147622   0.890   4.095   1.968 -0.3187 -2.1407 -1.5306
11729WAT     H247623   0.914   4.230   1.954 -0.6690 -1.5581  2.3588
11729WAT    EPW47624   0.882   4.163   1.929 -0.2195 -0.5277 -0.2214
11730WAT      O47625   4.494   7.494   7.133 -0.5259  0.2628  0.0407
11730WAT     H147626   4.526   7.556   7.081 -0.1324 -1.0691 -1.3794
11730WAT     H247627   4.551   7.491   7.199  0.6412 -0.0110 -0.9462
11730WAT    EPW47628   4.507   7.503   7.135  0.0798  0.2795  0.0630
11731WAT      O47629   1.669   7.043   1.595 -0.2083 -0.1433 -0.0230
11731WAT     H147630   1.664   6.960   1.620 -1.5071 -0.2888 -0.6838
11731WAT     H247631   1.666   7.039   1.508 -0.5137  0.6102 -0.0566
11731WAT    EPW47632   1.668   7.030   1.586 -0.4892  0.2769 -0.5042
11732WAT      O47633   2.461   1.412   2.977 -0.0913  0.6861  0.1228
11732WAT     H147634   2.495   1.414   3.058 -0.9094 -0.3356  0.5055
11732WAT     H247635   2.531   1.395   2.927  0.5139  1.8251  0.5334
11732WAT    EPW47636   2.477   1.410   2.982  0.4138  0.3904  0.1677
11733WAT      O47637   4.364   0.587   2.582 -0.5042 -0.1695  0.4085
11733WAT     H147638   4.420   0.537   2.538 -1.2662 -0.1224 -0.6758
11733WAT     H247639   4.415   0.644   2.623  0.2473  0.0654 -0.8072
11733WAT    EPW47640   4.380   0.588   2.581  0.0766 -0.3835 -0.0664
11734WAT      O47641   2.500   5.879   3.910 -0.0164  0.7937  0.2933
11734WAT     H147642   2.485   5.896   3.826  1.1424  1.8182  0.2577
11734WAT     H247643   2.491   5.792   3.915 -2.4560  0.9404 -0.3496
11734WAT    EPW47644   2.497   5.869   3.898 -0.0723 -0.1616  0.3433
11735WAT      O47645   4.958   1.759   2.061 -0.3094 -0.4963 -0.4640
11735WAT     H147646   4.949   1.738   2.145  1.3321  1.0138  0.1460
11735WAT     H247647   4.918   1.837   2.055  0.1557 -0.2869 -0.9350
11735WAT    EPW47648   4.951   1.767   2.072  0.1422  0.6161 -0.2535
11736WAT      O47649   0.053  -0.001   6.672  0.3350  0.1750 -0.3990
11736WAT     H147650   0.125   0.027   6.632  0.9627 -0.7969  0.0348
11736WAT     H247651   0.038   0.061   6.732  1.4243 -0.1324  0.2159
11736WAT    EPW47652   0.061   0.013   6.675 -0.0396  0.0381  0.3202
11737WAT      O47653   0.629   2.657   6.907 -0.0020 -0.1484  0.0622
11737WAT     H147654   0.638   2.670   6.992  0.7672  1.6366 -0.2591
11737WAT     H247655   0.662   2.729   6.871  1.0802 -1.5053 -1.8087
11737WAT    EPW47656   0.635   2.669   6.914  0.2965 -0.3030 -0.5435
11738WAT      O47657   5.083   2.439   3.410  0.3510 -0.0652  0.1883
11738WAT     H147658   5.149   2.474   3.366 -0.2660  0.9016  0.0109
11738WAT     H247659   5.070   2.495   3.476 -1.1585  0.4790 -0.5340
11738WAT    EPW47660   5.091   2.452   3.413 -0.2845  0.5748  0.1855
11739WAT      O47661   7.457   5.981   1.739 -0.1553  0.4272 -0.1118
11739WAT     H147662   7.470   6.008   1.658 -1.0280 -0.4813 -0.5825
11739WAT     H247663   7.524   5.926   1.754  0.0536  0.6647 -0.1809
11739WAT    EPW47664   7.468   5.977   1.730  0.6519 -0.1766  0.2529
11740WAT      O47665   2.207   0.182   7.356 -0.3351  0.2801  0.7075
11740WAT     H147666   2.241   0.132   7.293 -1.5371 -0.1010  0.3311
11740WAT     H247667   2.182   0.254   7.313 -1.0791  0.0558  0.7600
11740WAT    EPW47668   2.208   0.186   7.341  0.0909 -0.1392 -0.6344
11741WAT      O47669   1.189   3.113   0.600 -0.2653  0.3500 -0.1692
11741WAT     H147670   1.105   3.096   0.613 -0.5855  1.3900 -0.7856
11741WAT     H247671   1.195   3.122   0.513  0.4513  0.4188 -0.1166
11741WAT    EPW47672   1.178   3.112   0.589  0.4170  0.0233 -0.3319
11742WAT      O47673   4.856   6.856   1.698 -0.1276  0.5395  0.2786
11742WAT     H147674   4.810   6.788   1.729 -0.2109  0.3832 -0.1842
11742WAT     H247675   4.873   6.903   1.770  0.9700 -0.5879  0.7958
11742WAT    EPW47676   4.852   6.853   1.713  0.5764 -0.3784  0.0248
11743WAT      O47677   0.030   1.412   4.949  0.2312  0.1118  0.0641
11743WAT     H147678   0.080   1.349   4.983  1.1267 -0.7012 -2.5076
11743WAT     H247679   0.069   1.486   4.974 -0.3973 -0.3148  2.4885
11743WAT    EPW47680   0.043   1.413   4.958 -0.4925 -0.6435  0.6536
11744WAT      O47681   0.819   2.791   5.085  0.1160  0.2140  0.2115
11744WAT     H147682   0.790   2.769   5.006  0.4985  1.3239 -0.2443
11744WAT     H247683   0.748   2.784   5.135 -0.5666  1.2774 -0.5780
11744WAT    EPW47684   0.804   2.786   5.081  0.0440  0.0479  0.7471
11745WAT      O47685   2.906   4.395   5.349  0.9335 -0.4934 -0.2773
11745WAT     H147686   2.878   4.318   5.378  0.5833 -0.3775 -0.3052
11745WAT     H247687   2.887   4.394   5.264  1.0107 -0.4103 -0.2966
11745WAT    EPW47688   2.899   4.383   5.341  0.4878  1.2084  0.1676
11746WAT      O47689   2.422   6.041   1.358 -0.5903  0.0698  0.5614
11746WAT     H147690   2.370   6.106   1.329 -1.2069  0.0293  1.5364
11746WAT     H247691   2.502   6.068   1.337 -1.0433 -0.5797 -2.3977
11746WAT    EPW47692   2.426   6.055   1.351  0.4740 -0.1723 -0.0810
11747WAT      O47693   4.374   1.475   3.393  0.4392  0.4883 -0.6839
11747WAT     H147694   4.405   1.453   3.314  0.8625  0.0728 -0.4045
11747WAT     H247695   4.396   1.560   3.400  0.4655  0.5068 -0.9795
11747WAT    EPW47696   4.382   1.485   3.382 -0.3119 -0.0184 -0.0830
11748WAT      O47697   7.098   7.340   5.928  0.2199  0.2142  0.4751
11748WAT     H147698   7.117   7.317   5.846 -2.0894  0.5684 -0.2308
11748WAT     H247699   7.163   7.305   5.975  2.6049  1.5228 -1.6231
11748WAT    EPW47700   7.110   7.331   5.923 -0.3116  0.0674  0.0946
11749WAT      O47701   1.949   5.382   4.878 -0.4115  0.2259  0.2341
11749WAT     H147702   1.998   5.311   4.893  0.2695  0.9088  1.3100
11749WAT     H247703   1.962   5.432   4.948  0.2427  2.0701 -1.1366
11749WAT    EPW47704   1.958   5.379   4.891 -0.2723 -0.5477  0.5139
11750WAT      O47705   4.288   7.522   4.104 -0.1347 -0.3324  0.1972
11750WAT     H147706   4.322   7.444   4.082  1.3814  1.1370 -3.5500
11750WAT     H247707   4.202   7.510   4.093  0.1484 -1.2758 -1.3010
11750WAT    EPW47708   4.280   7.509   4.099 -0.0023 -0.6389 -0.4822
11751WAT      O47709   3.865   6.525   0.570  0.1779 -0.3397 -0.1452
11751WAT     H147710   3.831   6.446   0.585 -2.3583  0.4862 -0.8819
11751WAT     H247711   3.828   6.548   0.494  0.5391  1.7078  0.2450
11751WAT    EPW47712   3.854   6.517   0.561  0.1781 -0.2294 -0.4077
11752WAT      O47713   6.663   7.187   5.143  0.6004 -1.2643  0.0961
11752WAT     H147714   6.648   7.254   5.090  0.6204 -0.3311  1.2342
11752WAT     H247715   6.744   7.162   5.123  1.4641  0.4967  1.1295
11752WAT    EPW47716   6.673   7.193   5.133  0.3829 -0.1391  0.6885
11753WAT      O47717   0.622   2.032   3.490  0.0457  0.5239 -0.2141
11753WAT     H147718   0.587   2.091   3.545  1.5343  3.2187 -1.9543
11753WAT     H247719   0.658   1.973   3.544 -1.6835  1.0353  1.6314
11753WAT    EPW47720   0.622   2.032   3.506  0.6971  0.5687 -0.3516
11754WAT      O47721   5.568   0.380   4.023 -0.5544  0.1437  0.4963
11754WAT     H147722   5.515   0.311   4.023  0.3768 -0.5824  1.1220
11754WAT     H247723   5.513   0.448   4.023 -1.5323 -0.5075 -2.3920
11754WAT    EPW47724   5.552   0.380   4.023  0.0401 -0.5606  0.7359
11755WAT      O47725   1.935   7.095   5.850 -0.2103 -0.1491 -0.1364
11755WAT     H147726   1.878   7.030   5.852  1.9936 -2.2140  1.2812
11755WAT     H247727   1.946   7.111   5.765 -0.5186 -1.9222 -0.5308
11755WAT    EPW47728   1.928   7.088   5.838  0.3825 -0.5829  0.2417
11756WAT      O47729   2.182   2.469   2.875  0.1338  0.8091  0.0881
11756WAT     H147730   2.132   2.404   2.903  0.4336  1.7665  3.1919
11756WAT     H247731   2.246   2.429   2.831 -1.1911 -0.6961 -0.5492
11756WAT    EPW47732   2.184   2.454   2.873  0.5328  0.2674  0.3374
11757WAT      O47733   0.737   3.565   4.386  0.1338 -0.4928  0.4657
11757WAT     H147734   0.654   3.574   4.361 -0.0071 -0.9519  0.7503
11757WAT     H247735   0.760   3.487   4.354  1.9307  1.4246 -3.6050
11757WAT    EPW47736   0.728   3.555   4.378  0.2565 -0.7894 -0.0036
11758WAT      O47737   3.741   1.847   3.448 -0.3053  0.3086  0.6714
11758WAT     H147738   3.721   1.931   3.438 -1.0127 -0.0260 -1.1100
11758WAT     H247739   3.818   1.849   3.489 -0.9500  1.7622  1.9148
11758WAT    EPW47740   3.750   1.860   3.453 -0.2017  0.7216 -0.0960
11759WAT      O47741   1.547   5.689   4.547  0.0854 -0.0232  0.0623
11759WAT     H147742   1.607   5.738   4.506  1.0345 -0.3009  1.0723
11759WAT     H247743   1.494   5.664   4.482  0.0411  1.6610 -0.5967
11759WAT    EPW47744   1.548   5.692   4.531  0.4189 -0.2370  0.6885
11760WAT      O47745   3.955   1.764   3.169 -0.2057 -0.8430  0.1067
11760WAT     H147746   3.869   1.769   3.184 -0.0759  1.0186  0.4379
11760WAT     H247747   3.980   1.848   3.164  1.5498 -1.3510 -0.2447
11760WAT    EPW47748   3.946   1.777   3.170  0.3623 -0.6022  0.4260
11761WAT      O47749   2.519   1.640   0.817  0.9016 -0.7802  0.2348
11761WAT     H147750   2.446   1.600   0.792  0.3091  0.9868 -1.1003
11761WAT     H247751   2.580   1.603   0.766  0.6744 -1.1707  0.2405
11761WAT    EPW47752   2.517   1.628   0.805 -0.1576  0.9863  0.4945
11762WAT      O47753   3.326   5.615   5.909  0.0138 -0.9354  0.1619
11762WAT     H147754   3.412   5.630   5.910 -0.0340 -0.6543  0.2465
11762WAT     H247755   3.315   5.564   5.839 -0.0616  1.0703 -1.4063
11762WAT    EPW47756   3.337   5.610   5.898 -0.0878 -0.2906  0.6484
11763WAT      O47757   0.311   1.911   6.283 -0.0066 -0.3505  0.2110
11763WAT     H147758   0.247   1.950   6.238  0.0718 -0.0226  0.3791
11763WAT     H247759   0.318   1.960   6.355 -0.4660 -1.1551  0.8185
11763WAT    EPW47760   0.302   1.924   6.287 -1.2603  0.1297 -0.1647
11764WAT      O47761   4.424   0.779   3.646  0.1477 -0.1644  1.5067
11764WAT     H147762   4.415   0.702   3.688 -0.6770 -0.9219  0.0378
11764WAT     H247763   4.347   0.789   3.607  1.0079  0.2913 -0.1520
11764WAT    EPW47764   4.411   0.769   3.646  0.3938  0.4422  0.1143
11765WAT      O47765   1.068   4.722   4.816 -0.2347 -0.1096  0.1607
11765WAT     H147766   1.064   4.786   4.876 -0.8597  1.2556 -1.2522
11765WAT     H247767   1.134   4.747   4.764 -1.9560  0.7087 -1.7546
11765WAT    EPW47768   1.077   4.735   4.817 -0.7672 -0.7188 -0.0336
11766WAT      O47769   1.327   2.896   0.735  0.1180  0.5079 -0.3452
11766WAT     H147770   1.261   2.878   0.789  0.4663 -1.6695 -0.5287
11766WAT     H247771   1.294   2.956   0.681 -1.6412 -0.3104 -0.2673
11766WAT    EPW47772   1.312   2.902   0.735 -0.4036  0.5074 -0.1776
11767WAT      O47773   1.798   5.824   2.834 -0.4641 -0.3692  0.0864
11767WAT     H147774   1.821   5.889   2.888 -0.9346 -0.2457  0.1396
11767WAT     H247775   1.842   5.842   2.761  0.1582 -0.5220  0.4119
11767WAT    EPW47776   1.808   5.836   2.831 -0.2288 -0.7627  0.0750
11768WAT      O47777   6.899   1.963   5.585  0.3270  0.3995 -0.3600
11768WAT     H147778   6.967   1.990   5.633  1.1525  0.4028 -1.4943
11768WAT     H247779   6.873   1.890   5.626  1.7602 -0.2595 -0.5446
11768WAT    EPW47780   6.905   1.956   5.598  0.5945 -0.2561  0.1084
11769WAT      O47781   4.159   1.273   3.402  0.3497 -0.1498 -0.4568
11769WAT     H147782   4.191   1.349   3.375  0.7479 -0.6960 -1.5672
11769WAT     H247783   4.127   1.237   3.330 -2.3037  0.1005  0.4697
11769WAT    EPW47784   4.159   1.279   3.388  0.3251  0.3910  0.5553
11770WAT      O47785   3.242   3.171   6.235  0.2800  0.1830  0.0135
11770WAT     H147786   3.199   3.132   6.170  0.2224 -0.2122  0.2843
11770WAT     H247787   3.198   3.147   6.307  0.4327  0.4907  0.2131
11770WAT    EPW47788   3.229   3.161   6.236  0.5674  0.1063 -0.1523
11771WAT      O47789   0.745   1.422   2.352  0.1828  0.3309  0.7090
11771WAT     H147790   0.810   1.369   2.377  0.3565 -1.0470 -2.2252
11771WAT     H247791   0.781   1.471   2.290 -0.8978  1.5294  0.9837
11771WAT    EPW47792   0.760   1.421   2.347  0.2262  0.1178  0.1528
11772WAT      O47793   0.290   3.748   6.254  0.5459  0.7099 -0.4703
11772WAT     H147794   0.362   3.775   6.213  2.1769 -0.8142  1.1905
11772WAT     H247795   0.268   3.676   6.211  1.3254 -0.0042  0.2721
11772WAT    EPW47796   0.297   3.741   6.242 -0.4150  0.1760  0.3511
11773WAT      O47797   1.065   6.262   1.097  0.4942 -0.1427  0.6520
11773WAT     H147798   0.984   6.288   1.118  0.5278 -0.0973  0.7218
11773WAT     H247799   1.067   6.179   1.125  0.5079 -0.1113  0.7428
11773WAT    EPW47800   1.053   6.253   1.104 -0.6857  0.0582  0.4221
11774WAT      O47801   7.283   2.276   1.650 -0.3517 -0.2385 -0.1671
11774WAT     H147802   7.245   2.346   1.686  0.6609 -0.0863  0.6651
11774WAT     H247803   7.254   2.209   1.698 -0.6121 -0.2826 -0.3854
11774WAT    EPW47804   7.273   2.276   1.663  0.1093 -0.4045  0.1420
11775WAT      O47805   2.137   6.926   4.823 -0.3623  0.0357  0.6762
11775WAT     H147806   2.117   6.933   4.738  0.3477  0.4505  0.5344
11775WAT     H247807   2.061   6.907   4.860 -0.9991  1.3645  0.1320
11775WAT    EPW47808   2.123   6.924   4.816  0.6707  0.0517 -0.1604
11776WAT      O47809   6.784   3.786   2.454 -0.2776 -0.1865 -0.4135
11776WAT     H147810   6.845   3.768   2.394 -0.8050 -1.4414 -0.5907
11776WAT     H247811   6.767   3.709   2.490 -0.8627  0.3561  0.5174
11776WAT    EPW47812   6.791   3.772   2.451 -0.3592  0.0134 -0.1340
11777WAT      O47813   4.598   7.003   3.654 -0.0995  0.2275  0.0954
11777WAT     H147814   4.530   6.963   3.692  0.1179  0.8632  1.1841
11777WAT     H247815   4.593   7.085   3.683  0.1411  0.7087 -1.1842
11777WAT    EPW47816   4.587   7.009   3.664 -0.8282 -0.2329  0.1381
11778WAT      O47817   1.454   6.516   6.747  0.1253 -0.1671  0.0454
11778WAT     H147818   1.429   6.530   6.830 -2.5416 -1.8415 -0.3498
11778WAT     H247819   1.386   6.474   6.712  1.0040  0.7848 -3.1352
11778WAT    EPW47820   1.440   6.512   6.754  0.0797 -0.0367  0.0039
11779WAT      O47821   2.284   5.229   0.330  0.6506  0.3068 -0.0567
11779WAT     H147822   2.287   5.180   0.257 -0.0267  0.6627 -0.3323
11779WAT     H247823   2.199   5.232   0.350  1.0253 -2.6714  2.7776
11779WAT    EPW47824   2.272   5.222   0.322  0.1631  0.1172 -0.0677
11780WAT      O47825   3.087   0.969   6.913  0.1889 -0.1120  0.1079
11780WAT     H147826   3.168   0.948   6.936 -0.5280 -0.7457  2.2189
11780WAT     H247827   3.086   1.056   6.918  0.5543 -0.1443  0.7125
11780WAT    EPW47828   3.098   0.979   6.917  0.2201 -0.3503  0.7104
11781WAT      O47829   5.766   0.189   5.707 -0.4837 -0.0628  0.1035
11781WAT     H147830   5.741   0.269   5.683 -0.3557 -0.3183 -0.9598
11781WAT     H247831   5.846   0.201   5.740 -0.3969  0.2266 -0.2071
11781WAT    EPW47832   5.774   0.203   5.708  0.1757 -0.3177  0.3486
11782WAT      O47833   5.492   1.901   1.810  0.8522  0.5270  0.2241
11782WAT     H147834   5.435   1.894   1.744 -0.6939  0.9059  1.4611
11782WAT     H247835   5.500   1.820   1.839 -0.4698  0.6997  1.1499
11782WAT    EPW47836   5.485   1.888   1.804 -0.1915  0.0139  0.3302
11783WAT      O47837   1.446   2.065   0.128 -0.1106  0.6434  0.1341
11783WAT     H147838   1.418   2.073   0.210 -1.7924 -0.0577 -0.3243
11783WAT     H247839   1.493   1.992   0.128  1.1491  1.4266  0.7594
11783WAT    EPW47840   1.449   2.056   0.140  0.3695  0.3622 -0.4782
11784WAT      O47841   7.610   2.405   5.999 -0.0292  0.6478  0.1323
11784WAT     H147842   7.650   2.404   6.077  1.0903 -0.5345 -0.4163
11784WAT     H247843   7.652   2.342   5.954 -1.4772  0.4545 -1.0118
11784WAT    EPW47844   7.622   2.395   6.004 -0.0675 -0.0779 -0.4311
11785WAT      O47845   1.492   4.717   4.125  0.1761 -0.0453  0.6434
11785WAT     H147846   1.410   4.747   4.121 -0.0627 -0.6979  0.3297
11785WAT     H247847   1.504   4.682   4.045  0.7063 -0.0877  0.7405
11785WAT    EPW47848   1.482   4.716   4.112 -0.1081 -0.0199 -0.1473
11786WAT      O47849   3.445   6.379   1.518 -0.5394  0.6020  0.1197
11786WAT     H147850   3.473   6.297   1.509 -0.0804  0.9468 -2.2894
11786WAT     H247851   3.507   6.417   1.566  1.4400  0.4607 -2.1383
11786WAT    EPW47852   3.458   6.373   1.524 -0.3590 -0.6168 -0.5400
11787WAT      O47853   7.049   0.203   2.906  1.2548 -0.5288  0.2111
11787WAT     H147854   7.114   0.192   2.848  2.8365 -0.3824  1.8688
11787WAT     H247855   7.090   0.204   2.983 -0.1353  3.6490  1.1910
11787WAT    EPW47856   7.064   0.202   2.908  0.6024  0.3172  0.0074
11788WAT      O47857   0.814   5.988   4.744 -0.4041  0.3141  0.2962
11788WAT     H147858   0.759   6.025   4.800 -1.4252 -1.6371  0.6645
11788WAT     H247859   0.884   6.040   4.748 -2.1057  2.8407 -0.1272
11788WAT    EPW47860   0.816   6.001   4.753 -0.0294  0.2017  0.1811
11789WAT      O47861   5.300   3.662   7.071  0.2761  0.6071 -0.1291
11789WAT     H147862   5.329   3.582   7.089  1.1230  1.3263  1.9821
11789WAT     H247863   5.329   3.677   6.990  1.7346 -0.5065  0.1565
11789WAT    EPW47864   5.308   3.652   7.062  0.4850 -0.2040  0.2113
11790WAT      O47865   2.254   0.575   5.968  0.6934  0.7428  0.0853
11790WAT     H147866   2.339   0.557   5.971  0.5715  0.1559  0.2208
11790WAT     H247867   2.219   0.516   6.022 -0.0819 -0.7985 -1.9757
11790WAT    EPW47868   2.262   0.563   5.977 -0.3114  0.3342 -0.1927
11791WAT      O47869   7.176   7.232   2.738 -0.1027  0.7342 -0.4048
11791WAT     H147870   7.253   7.275   2.739 -1.0614  2.8358 -3.3522
11791WAT     H247871   7.199   7.150   2.722  1.6256  0.7822  1.4210
11791WAT    EPW47872   7.191   7.227   2.736 -0.6971 -0.2344 -0.3057
11792WAT      O47873   6.586   0.648   6.873  0.1158 -0.2463 -0.3494
11792WAT     H147874   6.513   0.600   6.877  0.5468 -0.9010 -0.1934
11792WAT     H247875   6.585   0.694   6.947  0.3301 -0.9580  0.1098
11792WAT    EPW47876   6.575   0.647   6.884 -0.6589 -0.6025  0.2783
11793WAT      O47877   2.764   5.278   6.521 -0.1523  0.2442  0.0358
11793WAT     H147878   2.821   5.290   6.586  1.0706 -0.0849 -0.9416
11793WAT     H247879   2.774   5.349   6.471 -0.9803  0.4250  0.1097
11793WAT    EPW47880   2.774   5.290   6.524  0.0449  0.5600  0.4634
11794WAT      O47881   6.952   0.986   4.565  0.2945 -0.2207 -0.5471
11794WAT     H147882   7.029   0.947   4.580  0.6918  0.5272 -0.5944
11794WAT     H247883   6.897   0.944   4.618  0.9915  0.0665  0.4272
11794WAT    EPW47884   6.956   0.974   4.575 -0.4086 -0.5442 -0.0867
11795WAT      O47885   0.737   4.950   4.070  0.1645 -0.3810  0.0298
11795WAT     H147886   0.776   4.873   4.077 -1.5707 -1.2853  0.1075
11795WAT     H247887   0.801   5.007   4.087  1.4802 -1.7815 -0.0618
11795WAT    EPW47888   0.752   4.947   4.073 -0.3766  0.0164  0.1703
11796WAT      O47889   0.125   6.283   2.379  0.5069  0.0736  0.4459
11796WAT     H147890   0.080   6.311   2.448  0.4073  1.0351  0.0156
11796WAT     H247891   0.136   6.198   2.394  1.4696  0.4404  2.2029
11796WAT    EPW47892   0.120   6.274   2.391 -0.1186 -0.0086  0.2571
11797WAT      O47893   3.989   1.601   4.793 -0.2484  0.0691  0.2086
11797WAT     H147894   3.946   1.586   4.718 -0.8002  1.4834  0.2077
11797WAT     H247895   3.940   1.562   4.853 -0.8510  0.5471  0.0423
11797WAT    EPW47896   3.976   1.593   4.790 -0.0239 -0.0893  0.0856
11798WAT      O47897   6.220   2.438   7.508 -0.0732  0.6081  0.5177
11798WAT     H147898   6.230   2.387   7.577  2.0317  0.6157  0.2646
11798WAT     H247899   6.278   2.502   7.520  1.0759  0.0916 -1.6782
11798WAT    EPW47900   6.230   2.440   7.520  0.4039 -0.6519 -0.1378
11799WAT      O47901   7.377   1.620   2.662 -0.2452 -0.5255  0.0456
11799WAT     H147902   7.395   1.679   2.600  1.0328 -0.9318  0.0067
11799WAT     H247903   7.369   1.546   2.617 -0.7953 -0.5800  0.2214
11799WAT    EPW47904   7.378   1.618   2.646  0.1559 -0.1569  0.0098
11800WAT      O47905   5.392   6.825   4.103 -0.6001  0.1645  0.2920
11800WAT     H147906   5.318   6.865   4.125 -1.5020 -0.7835 -0.8781
11800WAT     H247907   5.375   6.740   4.118  0.5951  0.0044  0.9245
11800WAT    EPW47908   5.379   6.818   4.108 -0.7250 -0.4312  0.4423
11801WAT      O47909   3.242   6.268   4.628  0.5931  0.2058  0.0632
11801WAT     H147910   3.241   6.206   4.568 -3.5654 -0.2579  0.3601
11801WAT     H247911   3.256   6.341   4.582  2.0242 -0.5247 -0.7421
11801WAT    EPW47912   3.244   6.270   4.613 -0.6209 -0.0823  0.2104
11802WAT      O47913   4.273   4.122   2.711 -0.1849 -0.8018 -0.0673
11802WAT     H147914   4.218   4.171   2.756  0.3030 -2.3549  2.3915
11802WAT     H247915   4.307   4.069   2.770  2.3753 -1.3611 -1.8570
11802WAT    EPW47916   4.270   4.121   2.726  0.6891 -0.2660 -0.3968
11803WAT      O47917   6.393   6.807   0.294  0.3300 -0.3492 -0.0436
11803WAT     H147918   6.422   6.875   0.247 -2.1378 -0.4399 -1.9267
11803WAT     H247919   6.331   6.843   0.344  2.8255 -0.2808  3.3035
11803WAT    EPW47920   6.388   6.823   0.294 -0.0389 -0.8531 -0.2578
11804WAT      O47921   6.649   3.910   4.564  0.2120  0.2645 -0.2105
11804WAT     H147922   6.621   3.949   4.491  2.7624  0.1736 -1.3595
11804WAT     H247923   6.670   3.829   4.537  0.9230  0.1376  0.6791
11804WAT    EPW47924   6.648   3.904   4.549  0.0883  0.0988 -0.2932
11805WAT      O47925   4.166   2.691   4.981 -0.1114  0.4475  0.3526
11805WAT     H147926   4.158   2.641   5.053  1.0294 -0.0805  0.1257
11805WAT     H247927   4.194   2.635   4.921  2.2638  1.5435  0.3585
11805WAT    EPW47928   4.169   2.675   4.983 -0.0798 -0.0926  0.4540
11806WAT      O47929   5.966   7.417   3.456  0.0551  0.0625 -0.6621
11806WAT     H147930   5.940   7.349   3.505 -1.4630 -0.1074 -1.6559
11806WAT     H247931   6.034   7.385   3.411  1.3355  0.1515  1.0711
11806WAT    EPW47932   5.973   7.402   3.457 -0.0785 -0.0739 -0.3932
11807WAT      O47933   3.233   6.743   2.354  0.4385 -0.3574  0.4198
11807WAT     H147934   3.165   6.739   2.409  2.0191 -0.7209  2.4346
11807WAT     H247935   3.289   6.795   2.394  1.2292  0.2545 -1.4038
11807WAT    EPW47936   3.231   6.750   2.368 -0.3512 -0.3043  0.1646
11808WAT      O47937   5.945   2.813   5.433  0.3168  1.1766  0.2267
11808WAT     H147938   6.027   2.792   5.454  0.6359 -1.2620 -2.7658
11808WAT     H247939   5.897   2.752   5.473  0.3201  0.5690 -0.6685
11808WAT    EPW47940   5.950   2.801   5.442  0.1901 -0.3000  0.3355
11809WAT      O47941   4.442   0.984   1.365 -0.2831  0.5293  0.4218
11809WAT     H147942   4.436   1.032   1.292 -0.9606  0.0073  0.1224
11809WAT     H247943   4.523   0.999   1.392 -0.3253  1.4726  0.0775
11809WAT    EPW47944   4.453   0.993   1.358  0.1782  0.2567 -0.2165
11810WAT      O47945   3.959   1.078   4.061  0.2607 -0.1173  0.3120
11810WAT     H147946   3.878   1.051   4.080 -0.5725  0.2723 -2.2774
11810WAT     H247947   3.963   1.071   3.975  2.3582  1.6543  0.1771
11810WAT    EPW47948   3.948   1.073   4.051 -0.5327 -0.2920  0.3328
11811WAT      O47949   5.100   7.067   0.811 -0.7140  0.6784 -0.3052
11811WAT     H147950   5.149   7.053   0.740  3.4286  0.9411  2.1360
11811WAT     H247951   5.102   6.991   0.853  0.7637  1.5935  1.4596
11811WAT    EPW47952   5.108   7.054   0.807  0.1876 -0.3420  0.1378
11812WAT      O47953   3.914   7.057   0.764  0.3807  0.2204  0.3034
11812WAT     H147954   3.999   7.047   0.781  0.5645 -0.2890 -0.7959
11812WAT     H247955   3.913   7.116   0.699 -0.2780  2.0357  1.8621
11812WAT    EPW47956   3.926   7.064   0.757  0.4885 -0.0707  0.1342
11813WAT      O47957   7.034   5.361   2.572 -0.4016  0.1827  0.4630
11813WAT     H147958   6.988   5.409   2.515  0.0124  0.4673  0.3609
11813WAT     H247959   7.054   5.290   2.527  0.1112  0.5045  0.1789
11813WAT    EPW47960   7.030   5.358   2.557 -0.0057 -0.6851  0.2239
11814WAT      O47961   3.680   5.624   3.090 -0.3355 -0.6243  0.1964
11814WAT     H147962   3.754   5.615   3.044 -0.7324  2.6622 -1.3923
11814WAT     H247963   3.706   5.664   3.162 -0.4679  0.0658 -0.1308
11814WAT    EPW47964   3.695   5.629   3.094 -0.2042  0.0997 -0.4816
11815WAT      O47965   3.580   5.746   0.215 -0.0330 -0.6869  0.2859
11815WAT     H147966   3.501   5.720   0.242  0.0050 -1.1033 -0.0027
11815WAT     H247967   3.634   5.709   0.272 -0.0624 -0.0221  0.7688
11815WAT    EPW47968   3.576   5.737   0.228  0.5068 -0.2116 -0.6124
11816WAT      O47969   5.721   3.294   1.543  0.2014  0.2994  0.2423
11816WAT     H147970   5.795   3.325   1.508  0.2957 -0.7574 -0.5285
11816WAT     H247971   5.717   3.335   1.620  1.2647  0.8402  0.0366
11816WAT    EPW47972   5.732   3.305   1.549  0.1731  0.0038  0.7150
11817WAT      O47973   0.139   2.288   6.445  0.2409 -0.3443 -0.4112
11817WAT     H147974   0.070   2.240   6.468  1.8314 -2.0259  1.2267
11817WAT     H247975   0.144   2.349   6.508 -0.2845  0.4173 -1.0821
11817WAT    EPW47976   0.129   2.290   6.458  0.5138  0.3004  0.1848
11818WAT      O47977   1.612   0.461   4.053  0.1558 -1.0941  0.0341
11818WAT     H147978   1.696   0.449   4.035 -0.1388 -1.0489 -1.4769
11818WAT     H247979   1.593   0.536   4.013 -0.7183 -1.3305 -0.0147
11818WAT    EPW47980   1.621   0.470   4.045 -0.2170 -0.4657 -0.0537
11819WAT      O47981   4.292   3.573   0.842  0.5193 -0.4881 -0.5658
11819WAT     H147982   4.292   3.510   0.782  1.1100 -0.8489 -0.1956
11819WAT     H247983   4.211   3.605   0.838  0.2775 -1.1258 -0.9075
11819WAT    EPW47984   4.280   3.568   0.833  0.1056  0.6276  0.4515
11820WAT      O47985   4.144   5.337   7.444 -0.0087  0.0911  0.2123
11820WAT     H147986   4.178   5.259   7.427  0.0415  0.2831 -0.6083
11820WAT     H247987   4.065   5.333   7.407 -0.4516  0.0429  1.1346
11820WAT    EPW47988   4.137   5.325   7.436 -0.4097 -0.0054 -0.2518
11821WAT      O47989   6.064   2.219   6.768  0.7352  0.1599  0.0338
11821WAT     H147990   6.001   2.160   6.778 -0.0238  0.8451 -0.5910
11821WAT     H247991   6.048   2.278   6.830  0.6154  0.4582 -0.2782
11821WAT    EPW47992   6.052   2.219   6.778  0.0554 -0.4384  0.0682
11822WAT      O47993   6.622   6.562   4.054  0.6722  0.4001  0.0148
11822WAT     H147994   6.636   6.497   3.997  2.3548 -0.4949  1.3367
11822WAT     H247995   6.667   6.629   4.020 -1.6956  1.2271 -1.7582
11822WAT    EPW47996   6.631   6.562   4.040 -0.2519 -0.3073  0.5055
11823WAT      O47997   6.043   2.727   3.564  0.3847  0.0166 -0.0752
11823WAT     H147998   6.042   2.791   3.504 -1.5439 -1.5491 -1.8714
11823WAT     H247999   5.989   2.757   3.626 -0.0127  0.3939 -0.5905
11823WAT    EPW48000   6.035   2.741   3.564 -0.1370  0.2528  0.3736
11824WAT      O48001   3.699   0.560   4.339 -0.3406  0.1970  0.1607
11824WAT     H148002   3.672   0.522   4.413  2.2372  0.3651  1.2910
11824WAT     H248003   3.745   0.629   4.367 -0.1871  0.9058 -1.6675
11824WAT    EPW48004   3.702   0.565   4.354  0.2125 -0.5799  0.1733
11825WAT      O48005   4.699   7.438   0.868  0.1438 -0.2075 -0.4642
11825WAT     H148006   4.649   7.372   0.841  0.0737  0.4800 -2.1916
11825WAT     H248007   4.725   7.475   0.793  1.5162  0.7264  0.4410
11825WAT    EPW48008   4.695   7.434   0.853  0.6031  0.1598 -0.7424
11826WAT      O48009   5.882   6.991   1.298 -0.1642  0.4084 -0.4746
11826WAT     H148010   5.912   6.937   1.359  0.1978  1.2043  0.0687
11826WAT     H248011   5.860   7.063   1.343 -3.6747 -0.3358 -0.6670
11826WAT    EPW48012   5.883   6.993   1.313 -0.6402  0.0206  0.0317
11827WAT      O48013   2.420   3.134   5.063  0.8695  0.1952  0.1102
11827WAT     H148014   2.383   3.140   5.142 -0.5628  0.6249 -0.5497
11827WAT     H248015   2.433   3.217   5.040  1.8469  0.0593  0.1267
11827WAT    EPW48016   2.416   3.147   5.071  0.1265 -0.4555 -0.1943
11828WAT      O48017   7.426   6.365   1.435  0.1425 -0.5855  0.0400
11828WAT     H148018   7.388   6.290   1.410  0.6268 -1.2391  1.2107
11828WAT     H248019   7.365   6.425   1.419  0.3557 -0.9424 -2.5619
11828WAT    EPW48020   7.411   6.363   1.429 -0.1782  0.0902  0.2841
11829WAT      O48021   1.397   3.038   5.740 -0.1026  0.1473  0.4207
11829WAT     H148022   1.414   3.123   5.735  1.0597 -0.1237 -1.0028
11829WAT     H248023   1.465   3.006   5.784 -0.4007 -0.0804  0.7196
11829WAT    EPW48024   1.410   3.046   5.746 -0.4466  0.1702  0.2336
11830WAT      O48025   5.399   6.180   6.637  0.3798 -0.0257  0.2250
11830WAT     H148026   5.358   6.239   6.588  1.0602  0.7736  0.6022
11830WAT     H248027   5.337   6.152   6.692 -0.3456 -0.7978 -0.9378
11830WAT    EPW48028   5.384   6.185   6.638  0.1111 -0.0512  0.0735
11831WAT      O48029   7.572   5.621   4.286 -0.2949 -0.4664  0.5559
11831WAT     H148030   7.553   5.568   4.353 -0.0511 -2.0878 -0.5819
11831WAT     H248031   7.651   5.652   4.307 -0.4075 -0.6090  1.2190
11831WAT    EPW48032   7.581   5.617   4.299 -0.0216  0.1260 -0.2414
11832WAT      O48033   5.567   2.000   0.987  0.2335  0.1909  0.3121
11832WAT     H148034   5.541   2.084   0.985  2.8329  1.0657 -1.2398
11832WAT     H248035   5.501   1.958   0.948 -0.1560  1.8741 -0.9628
11832WAT    EPW48036   5.553   2.006   0.981 -0.1916  0.1766 -0.1494
11833WAT      O48037   1.305   1.688   5.249  0.0954 -0.5182  0.0294
11833WAT     H148038   1.387   1.693   5.279 -0.0888  0.7840  0.4073
11833WAT     H248039   1.301   1.610   5.212  1.7234 -0.3369 -0.6064
11833WAT    EPW48040   1.317   1.677   5.248 -0.4856  0.8555  0.8075
11834WAT      O48041   0.230   4.490   1.282 -0.1559 -0.0116  0.0500
11834WAT     H148042   0.174   4.427   1.259 -0.2512  0.4018 -0.8887
11834WAT     H248043   0.267   4.459   1.354 -0.6267 -0.8819 -0.0690
11834WAT    EPW48044   0.227   4.476   1.289 -0.3701 -0.1286  0.3157
11835WAT      O48045   1.361   0.585   3.004  0.2134  0.1322  0.5621
11835WAT     H148046   1.296   0.528   3.016 -0.7871  1.4234  1.4379
11835WAT     H248047   1.398   0.559   2.929 -0.4962 -1.3787  0.7027
11835WAT    EPW48048   1.357   0.572   2.995 -0.5155  0.5913  0.0282
11836WAT      O48049   7.521   1.721   3.882  0.2546 -0.0553  0.4509
11836WAT     H148050   7.436   1.703   3.893  0.5532 -1.1675  1.1469
11836WAT     H248051   7.542   1.767   3.954  0.0338  1.0976 -0.1987
11836WAT    EPW48052   7.512   1.725   3.894  0.6094 -0.4441 -0.0384
11837WAT      O48053   1.751   4.844   2.780 -0.0536  0.3116  0.2047
11837WAT     H148054   1.795   4.916   2.804 -1.1696  0.3676  2.3483
11837WAT     H248055   1.669   4.872   2.769  0.0908 -0.0672 -2.2806
11837WAT    EPW48056   1.746   4.858   2.782 -0.1489 -0.0192 -0.0751
11838WAT      O48057   3.154   3.091   7.479  0.2173  0.2270  0.5641
11838WAT     H148058   3.217   3.073   7.421  0.6688 -2.5158  1.7279
11838WAT     H248059   3.098   3.025   7.468 -1.1308  1.2176  1.3154
11838WAT    EPW48060   3.155   3.079   7.469  0.4246  0.3555  0.6387
11839WAT      O48061   4.383   5.843   1.427  0.4266 -0.2441  0.7058
11839WAT     H148062   4.314   5.884   1.459 -0.6430 -0.8620 -0.7017
11839WAT     H248063   4.441   5.907   1.413 -0.4713  0.5115  0.3737
11839WAT    EPW48064   4.381   5.859   1.430  0.1868 -0.0089 -0.2016
11840WAT      O48065   1.619   5.285   3.506  0.6752  0.2175  0.3371
11840WAT     H148066   1.656   5.355   3.543  3.0701 -0.2780 -0.9108
11840WAT     H248067   1.683   5.226   3.506 -0.0311 -0.6840 -2.0479
11840WAT    EPW48068   1.634   5.287   3.511  0.0694 -0.8295  0.3526
11841WAT      O48069   4.045   1.776   0.458  0.0937 -0.5591 -0.1063
11841WAT     H148070   4.025   1.693   0.478  0.3042 -0.6106 -0.1125
11841WAT     H248071   3.969   1.808   0.430  0.1931 -0.9859 -0.8966
11841WAT    EPW48072   4.031   1.768   0.457  0.3218  1.1161 -0.4971
11842WAT      O48073   6.219   2.808   2.961 -0.1293  0.6221 -0.6336
11842WAT     H148074   6.227   2.887   2.925 -1.0902  0.5225 -1.0727
11842WAT     H248075   6.201   2.756   2.894  2.0623 -0.2841 -0.6110
11842WAT    EPW48076   6.218   2.812   2.946 -0.0876 -0.5386 -0.9850
11843WAT      O48077   5.165   0.177   0.072 -0.7732  0.1478 -0.4430
11843WAT     H148078   5.237   0.226   0.068  0.3808 -1.5639 -2.3988
11843WAT     H248079   5.130   0.198   0.150  0.6386  2.6071 -0.3844
11843WAT    EPW48080   5.170   0.187   0.083  1.0535  0.3015  0.1674
11844WAT      O48081   7.029   4.080   4.260 -0.7664  0.7747  0.0693
11844WAT     H148082   6.952   4.048   4.237 -0.8535  2.6844 -2.7833
11844WAT     H248083   7.009   4.147   4.313 -0.9661  0.3768  0.5001
11844WAT    EPW48084   7.015   4.085   4.265 -0.0856  0.1385  0.7919
11845WAT      O48085   3.673   6.970   1.008 -0.1593  0.3303 -0.1583
11845WAT     H148086   3.681   7.037   0.953 -1.1224 -0.4957 -1.3361
11845WAT     H248087   3.753   6.963   1.043 -0.1397  2.3415  0.3389
11845WAT    EPW48088   3.686   6.979   1.005  0.1827  0.1028 -0.1692
11846WAT      O48089   7.002   6.486   1.575 -0.3343  0.1412  0.3559
11846WAT     H148090   7.027   6.491   1.492 -1.6547  1.8348 -0.0007
11846WAT     H248091   7.051   6.545   1.616 -0.0816 -0.2840  0.6768
11846WAT    EPW48092   7.013   6.496   1.569  0.2072 -0.2946 -0.1184
11847WAT      O48093   6.497   3.941   3.926 -0.3378  0.5750 -0.5153
11847WAT     H148094   6.536   3.957   3.850 -2.5970 -0.0723 -1.9238
11847WAT     H248095   6.512   3.856   3.940 -0.9352  0.4009 -0.8955
11847WAT    EPW48096   6.505   3.931   3.917  0.2254  0.4786  0.0008
11848WAT      O48097   7.485   0.441   7.412 -0.3193  0.1374 -0.9634
11848WAT     H148098   7.425   0.487   7.456 -1.3399  0.5978 -2.7462
11848WAT     H248099   7.438   0.384   7.367  0.6786 -0.1982 -1.6158
11848WAT    EPW48100   7.469   0.439   7.412 -0.1575  0.0646  0.1653
11849WAT      O48101   5.744   5.839   5.566 -0.4432 -0.1191 -0.1570
11849WAT     H148102   5.735   5.777   5.505  0.6132 -0.8756  0.4188
11849WAT     H248103   5.662   5.851   5.595 -0.4946 -3.0138  1.3652
11849WAT    EPW48104   5.730   5.831   5.562 -0.1562 -1.1774 -0.2344
11850WAT      O48105   0.555   6.699   4.701 -0.0597  0.3047 -0.3439
11850WAT     H148106   0.493   6.747   4.738  1.7491  1.6711  1.0990
11850WAT     H248107   0.542   6.711   4.615 -1.0671  1.4746 -0.0502
11850WAT    EPW48108   0.544   6.708   4.693 -0.9752 -0.0285 -0.0575
11851WAT      O48109   2.783   1.485   2.589 -1.2098  0.5059 -0.0230
11851WAT     H148110   2.862   1.499   2.624 -0.7562 -3.2978  0.9354
11851WAT     H248111   2.776   1.548   2.529  1.0415  3.0626  2.1128
11851WAT    EPW48112   2.794   1.496   2.585 -0.0298 -0.2413  0.3956
11852WAT      O48113   1.038   5.801   0.332 -0.0325  0.3926 -0.2662
11852WAT     H148114   0.953   5.808   0.347  0.0180  0.8582 -0.1851
11852WAT     H248115   1.060   5.728   0.374  0.0095  1.3968  1.5492
11852WAT    EPW48116   1.029   5.791   0.340 -0.6315  0.0768  0.3994
11853WAT      O48117   3.543   3.356   0.936 -0.2186  0.1933  0.0616
11853WAT     H148118   3.573   3.399   1.006 -1.1938  1.2013 -0.1086
11853WAT     H248119   3.532   3.419   0.877  1.2028 -0.7284 -1.2513
11853WAT    EPW48120   3.546   3.372   0.938  0.3477 -0.0845 -0.1370
11854WAT      O48121   6.057   2.240   1.725  0.6849  0.7674 -0.7721
11854WAT     H148122   6.013   2.305   1.762  0.5293  0.2779 -0.0845
11854WAT     H248123   6.010   2.170   1.744  0.7343  0.4664 -1.6880
11854WAT    EPW48124   6.044   2.239   1.733 -0.4646  0.0329  0.0009
11855WAT      O48125   4.862   0.797   4.731  0.1340 -0.4199 -0.2821
11855WAT     H148126   4.940   0.761   4.714  0.5111  0.0030  0.4663
11855WAT     H248127   4.805   0.742   4.696  0.7876 -0.5572 -1.1493
11855WAT    EPW48128   4.865   0.784   4.723  1.0531 -0.2254 -0.2784
11856WAT      O48129   3.208   5.815   3.890 -0.1096  0.9634  0.1990
11856WAT     H148130   3.133   5.823   3.934 -0.1601 -0.8425  0.5095
11856WAT     H248131   3.188   5.762   3.824  0.4598  2.0171 -0.8714
11856WAT    EPW48132   3.194   5.808   3.887 -0.0045 -0.2561  0.1667
11857WAT      O48133   4.388   4.385   6.765 -0.7130  0.0790 -0.2349
11857WAT     H148134   4.378   4.299   6.754 -0.2257 -0.0041 -0.0594
11857WAT     H248135   4.442   4.407   6.701 -1.0997  0.3180 -0.4825
11857WAT    EPW48136   4.394   4.375   6.754  0.7825 -0.2893  0.2083
11858WAT      O48137   7.158   3.636   1.395  0.5515 -0.1762 -0.1139
11858WAT     H148138   7.117   3.602   1.326  0.5890 -1.0368  0.2804
11858WAT     H248139   7.220   3.687   1.359 -0.2909  0.4618 -0.7128
11858WAT    EPW48140   7.161   3.639   1.379  0.2439 -0.0412  0.2906
11859WAT      O48141   2.906   7.135   0.092 -0.5213  0.4455 -0.0456
11859WAT     H148142   2.942   7.194   0.145 -0.7352  1.9329 -1.5110
11859WAT     H248143   2.964   7.069   0.094 -1.1902 -0.2178  3.1042
11859WAT    EPW48144   2.920   7.134   0.100 -0.2185  0.1033  0.3042
11860WAT      O48145   6.128   3.474   2.722  0.2018 -0.2371 -0.0323
11860WAT     H148146   6.102   3.419   2.659 -0.7457 -1.7629  1.6340
11860WAT     H248147   6.209   3.447   2.740  0.0058 -0.6191  0.2779
11860WAT    EPW48148   6.136   3.462   2.715 -0.8328  0.3637  0.4952
11861WAT      O48149   4.777   6.296   0.716 -0.1357 -1.0320 -0.3478
11861WAT     H148150   4.760   6.276   0.799 -0.9484 -0.6100 -0.4061
11861WAT     H248151   4.698   6.300   0.679 -0.0447  2.0006 -0.4149
11861WAT    EPW48152   4.763   6.293   0.723 -0.1500  0.0331 -0.8554
11862WAT      O48153   5.341   7.063   3.267 -0.3175  0.6713  0.3739
11862WAT     H148154   5.411   7.096   3.226  0.3269  0.4475  1.2599
11862WAT     H248155   5.299   7.018   3.205 -0.1125  1.4715 -0.3609
11862WAT    EPW48156   5.345   7.061   3.252 -0.0119 -0.3789 -0.3575
11863WAT      O48157   2.888   6.841   0.401 -0.3022  0.1702 -0.1862
11863WAT     H148158   2.909   6.821   0.319  1.5574 -0.0865  0.3026
11863WAT     H248159   2.805   6.865   0.396 -0.2761 -0.0131 -2.1130
11863WAT    EPW48160   2.879   6.842   0.388  0.0211  0.5154  0.8045
11864WAT      O48161   4.959   5.805   7.417 -0.1036  0.1643  0.5145
11864WAT     H148162   4.927   5.727   7.442  2.4327 -1.8802 -1.9770
11864WAT     H248163   4.950   5.803   7.330  2.8589  1.1846  0.0826
11864WAT    EPW48164   4.953   5.793   7.408  0.3042  0.1980 -0.2877
11865WAT      O48165   2.447   4.565   4.649 -0.1868  1.0604 -0.2537
11865WAT     H148166   2.370   4.525   4.662  0.4795 -0.7959 -1.6667
11865WAT     H248167   2.488   4.555   4.725 -1.2047  1.8221  0.4237
11865WAT    EPW48168   2.442   4.558   4.662 -0.6858  0.0395  0.0165
11866WAT      O48169   7.197   6.516   1.356  0.2523 -0.0154  0.7675
11866WAT     H148170   7.231   6.499   1.278  1.0882  0.5331  0.9946
11866WAT     H248171   7.149   6.588   1.342 -1.1796 -1.0199  0.3607
11866WAT    EPW48172   7.195   6.524   1.343  0.6889 -0.0069  0.1970
11867WAT      O48173   2.569   7.428   4.967  0.1240 -0.0162 -0.5439
11867WAT     H148174   2.648   7.403   4.995  1.7842  3.2001 -1.8793
11867WAT     H248175   2.581   7.446   4.882 -1.5665  2.1073 -0.4332
11867WAT    EPW48176   2.582   7.427   4.959 -0.4090 -0.4111 -0.0498
11868WAT      O48177   2.788   2.565   3.316  0.4466 -0.5083  0.1929
11868WAT     H148178   2.829   2.539   3.389  2.7339  2.0588 -0.0420
11868WAT     H248179   2.770   2.649   3.331  0.4408 -0.0766 -1.9914
11868WAT    EPW48180   2.791   2.573   3.329  0.4527  0.3877  0.3604
11869WAT      O48181   7.587   1.796   4.534  0.3336  0.1606 -0.6105
11869WAT     H148182   7.671   1.817   4.519 -0.0991  0.8354 -2.3511
11869WAT     H248183   7.543   1.854   4.487 -1.0863 -0.9742 -0.7350
11869WAT    EPW48184   7.593   1.808   4.525  0.1687 -0.3615  0.3128
11870WAT      O48185   3.017   2.466   7.242 -0.4373 -0.7283 -0.0608
11870WAT     H148186   2.933   2.443   7.238 -0.7689  0.4295 -0.2831
11870WAT     H248187   3.029   2.485   7.326  0.0649 -2.4420  0.2849
11870WAT    EPW48188   3.006   2.465   7.254 -0.3833  0.3364  0.3971
11871WAT      O48189   0.595   5.175   3.227 -0.1769 -0.0485  0.0558
11871WAT     H148190   0.515   5.209   3.240 -0.4342  0.2620 -1.9887
11871WAT     H248191   0.648   5.229   3.270 -0.7990  1.7237 -1.2584
11871WAT    EPW48192   0.591   5.188   3.235 -0.0429  0.0745  0.0739
11872WAT      O48193   2.848   5.231   7.544  0.0350 -0.7704 -0.8055
11872WAT     H148194   2.848   5.145   7.557 -1.1185 -0.7808 -0.7880
11872WAT     H248195   2.812   5.240   7.465 -0.9368 -0.2497 -0.3222
11872WAT    EPW48196   2.843   5.220   7.534  0.3718  0.3916 -0.5577
11873WAT      O48197   4.026   5.651   5.793 -0.3659  0.5286 -0.1228
11873WAT     H148198   3.991   5.590   5.741  3.4323 -1.2014 -0.9486
11873WAT     H248199   4.065   5.705   5.738 -0.1111  1.3147  0.7993
11873WAT    EPW48200   4.026   5.650   5.777  0.1505 -0.4040 -0.5699
11874WAT      O48201   5.749   5.564   6.917  0.0996 -0.0410  0.0282
11874WAT     H148202   5.786   5.531   6.846  1.2981 -0.2031  0.7136
11874WAT     H248203   5.692   5.502   6.941  0.3192 -0.3661 -0.2799
11874WAT    EPW48204   5.746   5.550   6.910  0.6257 -0.7864 -0.8186
11875WAT      O48205   5.041   3.861   3.881 -0.8020 -0.1124  0.4672
11875WAT     H148206   5.060   3.908   3.952 -1.1895  1.6756 -0.5594
11875WAT     H248207   4.960   3.886   3.860 -0.8934 -0.9935 -0.3243
11875WAT    EPW48208   5.032   3.872   3.888 -0.7246 -0.1524  0.2296
11876WAT      O48209   0.944   1.296   3.178 -0.0699  0.1104 -0.0391
11876WAT     H148210   1.015   1.255   3.150  0.8018  0.5685  1.3755
11876WAT     H248211   0.950   1.375   3.141  0.6650  0.4578  0.7943
11876WAT    EPW48212   0.956   1.302   3.168  0.2970 -0.2225 -0.2362
11877WAT      O48213   7.087   6.975   1.304 -0.5958  0.0174  0.0229
11877WAT     H148214   7.010   7.013   1.289 -0.1486  1.1396  0.4093
11877WAT     H248215   7.144   7.030   1.266  0.0034 -0.8751 -0.3968
11877WAT    EPW48216   7.084   6.989   1.296  0.3496  0.2421  0.1031
11878WAT      O48217   3.033   1.772   4.825 -0.3389  0.1111  0.1020
11878WAT     H148218   3.041   1.836   4.884  1.6353  0.7103 -0.7437
11878WAT     H248219   3.116   1.748   4.810 -0.9256 -1.3437 -1.0239
11878WAT    EPW48220   3.046   1.778   4.832 -0.2919 -0.0054 -0.7596
11879WAT      O48221   1.763   7.103   0.902  0.5614  0.1496 -0.3750
11879WAT     H148222   1.694   7.059   0.871 -1.2169  0.0120  3.2182
11879WAT     H248223   1.824   7.041   0.911 -0.3356 -0.6740  0.2872
11879WAT    EPW48224   1.762   7.087   0.899  0.0758 -0.0695 -0.6450
11880WAT      O48225   1.110   0.415   6.167 -0.5463  0.3895  0.2036
11880WAT     H148226   1.190   0.419   6.202 -0.7300  0.3884  0.6371
11880WAT     H248227   1.065   0.367   6.224  0.2938 -3.9383 -2.3721
11880WAT    EPW48228   1.115   0.409   6.181 -0.3816 -0.1007  0.2381
11881WAT      O48229   7.177   6.613   3.508 -0.0062  0.8101 -0.5493
11881WAT     H148230   7.231   6.674   3.477 -0.8008  1.7832 -0.0535
11881WAT     H248231   7.190   6.616   3.595  1.0903 -0.8397 -0.6010
11881WAT    EPW48232   7.187   6.622   3.516 -0.5798 -0.4223  0.1400
11882WAT      O48233   5.044   3.457   3.501  0.4169 -0.0211 -0.4238
11882WAT     H148234   5.107   3.479   3.446 -1.2056  3.5527 -1.1292
11882WAT     H248235   5.023   3.532   3.540 -1.9346 -1.4602  1.3972
11882WAT    EPW48236   5.050   3.471   3.499  0.4788 -0.5083  0.0289
11883WAT      O48237   1.883   5.398   5.412 -0.5062 -0.1941 -0.3116
11883WAT     H148238   1.875   5.472   5.457 -0.6565 -0.6677  0.4579
11883WAT     H248239   1.850   5.338   5.466 -1.8166 -0.6198 -1.5240
11883WAT    EPW48240   1.877   5.400   5.427  0.4370  0.4841  0.2202
11884WAT      O48241   6.109   6.778   4.551  0.4689  0.1581  0.1706
11884WAT     H148242   6.137   6.860   4.537 -0.0615  0.4004  0.5067
11884WAT     H248243   6.183   6.733   4.563  0.8625  0.3099 -1.4222
11884WAT    EPW48244   6.124   6.784   4.551  0.2044  0.1390 -0.5316
11885WAT      O48245   7.320   5.788   4.841  0.5543 -0.3562 -0.8690
11885WAT     H148246   7.335   5.707   4.871  0.0540  0.0882  0.6778
11885WAT     H248247   7.234   5.795   4.844  0.5864  0.1866 -1.1699
11885WAT    EPW48248   7.310   5.777   4.846  0.6001  0.4399  0.3783
11886WAT      O48249   6.504   5.572   3.673  0.3171 -0.2153  0.1169
11886WAT     H148250   6.513   5.659   3.665 -0.7154 -0.1737 -0.9125
11886WAT     H248251   6.586   5.544   3.683  1.0714  0.6090 -2.6986
11886WAT    EPW48252   6.517   5.581   3.674 -0.2266 -0.0662  0.3575
11887WAT      O48253   6.876   4.899   5.626 -0.3013  0.6011  0.0357
11887WAT     H148254   6.900   4.946   5.695 -0.9262  1.0095 -0.0192
11887WAT     H248255   6.803   4.938   5.598  0.8336  1.5222 -1.9005
11887WAT    EPW48256   6.869   4.912   5.632  0.1269 -0.5404 -0.0677
11888WAT      O48257   2.165   7.412   0.814  0.4186 -0.4348 -0.0709
11888WAT     H148258   2.180   7.349   0.756 -1.0798 -1.5386  0.6804
11888WAT     H248259   2.219   7.394   0.880  0.8849 -0.2005 -0.3911
11888WAT    EPW48260   2.175   7.400   0.815  0.3989  0.4683  0.1252
11889WAT      O48261   7.143   6.394   3.767 -0.6017  0.1903 -0.5632
11889WAT     H148262   7.167   6.477   3.781 -0.4347  0.0600 -0.0863
11889WAT     H248263   7.068   6.403   3.723 -0.5990  0.5961 -0.4951
11889WAT    EPW48264   7.136   6.408   3.762  0.0731 -0.5795  0.1744
11890WAT      O48265   5.497   4.412   7.211  0.4354  0.2984 -0.2949
11890WAT     H148266   5.557   4.351   7.194  1.8349  1.4949  0.1234
11890WAT     H248267   5.511   4.433   7.295  0.2702  1.4633 -0.5343
11890WAT    EPW48268   5.508   4.406   7.221 -0.4767  0.3640  0.8080
11891WAT      O48269   0.529   0.819   5.237  0.1492 -0.1082 -0.4390
11891WAT     H148270   0.487   0.831   5.313  1.2987  0.6073  0.1273
11891WAT     H248271   0.543   0.733   5.234  0.2273 -0.1260  0.2480
11891WAT    EPW48272   0.525   0.808   5.248  0.0797  0.5691 -0.3185
11892WAT      O48273   2.351   3.728   3.121 -0.2702  0.2563 -0.2999
11892WAT     H148274   2.379   3.679   3.187  0.8184  0.5138 -0.5584
11892WAT     H248275   2.342   3.671   3.055  1.8590  0.5019 -0.8566
11892WAT    EPW48276   2.354   3.713   3.121 -0.3182 -0.6225  0.5483
11893WAT      O48277   3.526   6.728   7.026 -0.0479  0.4477  0.3983
11893WAT     H148278   3.598   6.698   7.065 -0.6719  0.4290  1.5550
11893WAT     H248279   3.477   6.757   7.091 -0.0668  2.8133 -0.5304
11893WAT    EPW48280   3.530   6.728   7.041 -0.3182 -0.3826  0.4576
11894WAT      O48281   5.100   2.904   4.820 -0.3877  0.1556 -0.2872
11894WAT     H148282   5.041   2.963   4.797 -0.6532 -0.4168 -1.1256
11894WAT     H248283   5.075   2.878   4.899 -0.8892  0.3771 -0.3744
11894WAT    EPW48284   5.088   2.909   4.828  0.0031  0.0378  0.0886
11895WAT      O48285   2.465   1.096   3.859  0.4588 -0.1408  0.2422
11895WAT     H148286   2.404   1.046   3.822  1.4651 -2.8816  1.9372
11895WAT     H248287   2.450   1.087   3.945  0.6556  2.6500  0.6535
11895WAT    EPW48288   2.454   1.087   3.866 -0.0683  0.6430 -0.7254
11896WAT      O48289   3.607   4.323   7.271  0.1507  0.3274 -0.1098
11896WAT     H148290   3.662   4.256   7.265  0.5655  0.3528  2.3775
11896WAT     H248291   3.623   4.356   7.351 -2.6574  1.0425  0.2674
11896WAT    EPW48292   3.617   4.318   7.282  0.4179  0.7823  0.5811
11897WAT      O48293   2.769   0.345   6.061  0.2546  0.4872 -0.0993
11897WAT     H148294   2.787   0.358   5.976  3.1352  0.4132  0.4019
11897WAT     H248295   2.787   0.421   6.098  2.3465 -0.4045  0.8401
11897WAT    EPW48296   2.774   0.358   6.054 -0.4340  0.0442 -0.2355
11898WAT      O48297   0.405   6.258   5.504 -0.2676 -0.3656  0.4012
11898WAT     H148298   0.469   6.205   5.476 -1.2362 -0.6780 -1.3879
11898WAT     H248299   0.421   6.332   5.461 -1.6057 -0.7506 -0.8484
11898WAT    EPW48300   0.417   6.261   5.493  0.3760 -0.0100 -0.7537
11899WAT      O48301   1.804   4.916   3.113  0.3235  0.2460 -0.3479
11899WAT     H148302   1.836   4.971   3.173  0.4765  0.1700 -0.3586
11899WAT     H248303   1.815   4.959   3.038 -0.6400  0.6979 -0.2461
11899WAT    EPW48304   1.810   4.930   3.111 -0.2160 -0.8655 -0.0337
11900WAT      O48305   5.415   1.629   2.201  0.2811  0.1263 -0.7092
11900WAT     H148306   5.351   1.639   2.259 -1.0768 -3.0948 -1.4201
11900WAT     H248307   5.379   1.650   2.125  0.6985  0.2121 -0.8904
11900WAT    EPW48308   5.400   1.634   2.199  0.6621 -0.9054  0.7440
11901WAT      O48309   3.191   0.227   7.120  0.2048 -0.5941 -0.0725
11901WAT     H148310   3.191   0.170   7.053  1.2738  0.1708 -0.7717
11901WAT     H248311   3.188   0.305   7.080 -1.3586 -0.1329  0.8664
11901WAT    EPW48312   3.191   0.230   7.104 -0.0837 -0.1223  0.0122
11902WAT      O48313   5.038   4.271   3.956  0.7279 -0.3835  0.1766
11902WAT     H148314   4.967   4.309   3.989 -0.2253 -1.2761 -0.7921
11902WAT     H248315   5.104   4.317   3.991 -0.2885  0.0282  1.6107
11902WAT    EPW48316   5.037   4.284   3.966 -0.7675  0.5182 -0.1319
11903WAT      O48317   5.869   4.960   2.061 -0.5569  0.6586 -0.1437
11903WAT     H148318   5.942   4.999   2.089 -2.1732  3.1146  1.0734
11903WAT     H248319   5.835   4.926   2.133 -0.1736 -1.4245 -0.8804
11903WAT    EPW48320   5.875   4.961   2.076 -0.0570  0.4158  0.8902
11904WAT      O48321   3.657   0.560   5.404 -0.1547 -0.4224  0.5087
11904WAT     H148322   3.745   0.558   5.404 -0.1252  0.0405 -0.5387
11904WAT     H248323   3.636   0.527   5.481  0.9440 -0.9177  0.6181
11904WAT    EPW48324   3.667   0.555   5.415 -0.2171  0.0121 -0.4536
11905WAT      O48325   7.401   2.733   1.391  0.3812 -0.1745  0.0651
11905WAT     H148326   7.397   2.743   1.304 -1.0433  1.0523  0.2343
11905WAT     H248327   7.318   2.725   1.415  0.8200 -1.4179  1.2446
11905WAT    EPW48328   7.388   2.734   1.381  0.2324  0.4023  0.0762
11906WAT      O48329   2.933   5.939   2.180  0.5538  0.5676 -1.0829
11906WAT     H148330   2.871   5.931   2.242  0.7079  0.7166 -0.9073
11906WAT     H248331   2.916   5.873   2.126  2.3322 -1.6110  0.8018
11906WAT    EPW48332   2.921   5.928   2.181  0.7501 -0.0902  0.1239
11907WAT      O48333   7.475   3.633   5.961  0.4277  0.0089  0.0146
11907WAT     H148334   7.472   3.690   6.028 -0.9310  0.6617 -0.5411
11907WAT     H248335   7.403   3.585   5.973  0.9672 -0.8506 -0.1641
11907WAT    EPW48336   7.464   3.635   5.973  0.1060  0.1330 -0.0157
11908WAT      O48337   5.173   0.735   6.718  0.5809  0.3298 -0.2133
11908WAT     H148338   5.137   0.808   6.748  0.2673 -0.3213  1.0470
11908WAT     H248339   5.169   0.745   6.631  0.6065  1.8209 -0.0746
11908WAT    EPW48340   5.167   0.747   6.709  0.5869  0.3119  0.4865
11909WAT      O48341   6.377   5.812   3.270  0.1610  0.6681  0.6390
11909WAT     H148342   6.410   5.732   3.262 -0.0866  0.6342 -0.1634
11909WAT     H248343   6.395   5.849   3.193 -0.4411  1.1075  0.7012
11909WAT    EPW48344   6.384   5.806   3.257 -0.6496 -0.5128  0.2219
11910WAT      O48345   4.977   3.527   4.040  0.0987 -0.4003 -0.1354
11910WAT     H148346   4.935   3.454   4.061  0.1497 -0.6590 -0.9336
11910WAT     H248347   4.978   3.572   4.115 -0.8676 -0.7481  0.0979
11910WAT    EPW48348   4.971   3.523   4.054 -0.3647 -0.1848  0.0235
11911WAT      O48349   5.911   5.239   3.480 -0.6534  1.0217  0.1343
11911WAT     H148350   5.967   5.174   3.466 -1.4249  0.2692  0.4425
11911WAT     H248351   5.956   5.310   3.458  0.8840  0.5860  1.6054
11911WAT    EPW48352   5.926   5.240   3.475 -0.6184 -0.1143 -0.1431
11912WAT      O48353   0.456   4.200   1.658 -0.4235  0.2505 -0.4452
11912WAT     H148354   0.495   4.156   1.723 -0.0585  0.9823 -0.1451
11912WAT     H248355   0.513   4.265   1.641 -0.4464 -0.0137 -1.6019
11912WAT    EPW48356   0.470   4.203   1.665 -0.2697 -0.5164 -0.4373
11913WAT      O48357   7.404   4.914   7.225 -0.0284 -0.5650 -0.0930
11913WAT     H148358   7.410   5.001   7.234  1.6816 -0.5524 -0.9863
11913WAT     H248359   7.385   4.904   7.140  0.1314 -1.0744 -0.0695
11913WAT    EPW48360   7.402   4.925   7.213  0.4180 -0.4973  0.2424
11914WAT      O48361   3.321   4.678   3.206 -0.4216  0.4425 -0.5040
11914WAT     H148362   3.387   4.733   3.219  0.3775 -0.4186 -0.8300
11914WAT     H248363   3.341   4.609   3.256 -0.0453 -0.6509 -2.1118
11914WAT    EPW48364   3.333   4.676   3.216 -0.6414  0.3728  0.3095
11915WAT      O48365   7.347   4.165   3.498 -0.1085 -0.0468 -0.2286
11915WAT     H148366   7.332   4.087   3.462  0.6929 -0.3937  0.1799
11915WAT     H248367   7.339   4.150   3.583 -2.4273  0.8543 -0.1992
11915WAT    EPW48368   7.343   4.151   3.505  0.2727 -0.1254 -0.4804
11916WAT      O48369   7.474   0.090   1.048  0.2126 -0.0028 -0.0334
11916WAT     H148370   7.463   0.015   1.006 -1.6620  1.2025 -1.8727
11916WAT     H248371   7.455   0.070   1.131  0.2787 -1.6292 -0.3782
11916WAT    EPW48372   7.470   0.076   1.054  0.4996 -0.2591  0.6293
11917WAT      O48373   7.247   6.075   4.545 -0.2450 -0.1674 -0.1170
11917WAT     H148374   7.293   6.003   4.530 -0.8086 -0.5171 -0.1626
11917WAT     H248375   7.264   6.125   4.475 -0.3967 -0.5330 -0.4164
11917WAT    EPW48376   7.256   6.072   4.532 -0.0629 -0.0739 -0.4165
11918WAT      O48377   4.996   0.620   5.285  0.0768 -0.1638  0.1514
11918WAT     H148378   5.053   0.561   5.314 -0.3228  0.0809  1.5085
11918WAT     H248379   4.943   0.574   5.234  0.9907 -0.5564 -0.4715
11918WAT    EPW48380   4.996   0.605   5.282  0.3180 -0.1095  0.1022
11919WAT      O48381   2.908   2.771   1.332 -0.0144 -0.0512  0.0761
11919WAT     H148382   2.911   2.824   1.401 -0.7502  1.8786 -1.2913
11919WAT     H248383   2.984   2.786   1.291  0.4129 -1.1740  0.4017
11919WAT    EPW48384   2.920   2.781   1.336 -0.4934 -0.0898 -0.3366
11920WAT      O48385   4.810   1.044   1.108  0.2569  0.6627 -0.2606
11920WAT     H148386   4.880   1.064   1.061  0.0974  0.2217 -0.6912
11920WAT     H248387   4.766   0.988   1.058  1.5390 -2.2286  1.5736
11920WAT    EPW48388   4.814   1.039   1.094  0.3530 -0.1791  0.3125
11921WAT      O48389   0.476   5.619   1.184  0.3408  0.6359  0.3313
11921WAT     H148390   0.415   5.610   1.246  1.9806  0.3891  1.9799
11921WAT     H248391   0.520   5.690   1.209  0.3473  1.2091 -1.2121
11921WAT    EPW48392   0.473   5.628   1.197  0.0325  0.1030  0.0665
11922WAT      O48393   7.542   5.427   0.596 -0.6176  0.2756  0.1117
11922WAT     H148394   7.469   5.399   0.558 -0.9915  0.9237  0.3218
11922WAT     H248395   7.524   5.421   0.681 -1.4489  2.8448  0.2073
11922WAT    EPW48396   7.528   5.422   0.603 -0.5825 -0.3064 -0.0554
11923WAT      O48397   3.226   6.882   3.167  0.0115 -0.0627  0.2342
11923WAT     H148398   3.269   6.831   3.224 -1.2587 -0.7620  0.6146
11923WAT     H248399   3.262   6.960   3.178  0.6910 -0.4691  1.0468
11923WAT    EPW48400   3.238   6.886   3.177  0.3804 -0.7661  0.6518
11924WAT      O48401   6.999   1.673   1.975 -0.2659 -0.2761 -0.1406
11924WAT     H148402   7.072   1.690   1.931 -0.4810 -1.5784 -1.0282
11924WAT     H248403   7.023   1.611   2.031 -0.7932 -1.0630 -0.7728
11924WAT    EPW48404   7.013   1.667   1.977 -0.4259  1.0948 -0.3411
11925WAT      O48405   1.028   7.506   5.447  0.4634  0.0145 -0.0006
11925WAT     H148406   1.043   7.591   5.439 -0.5058  0.3142  1.0409
11925WAT     H248407   1.045   7.489   5.531 -1.7461 -0.2453  0.4803
11925WAT    EPW48408   1.032   7.516   5.458  0.5822 -0.1320 -0.2388
11926WAT      O48409   2.392   6.345   6.184  0.2574  0.0689  0.5524
11926WAT     H148410   2.389   6.339   6.097  1.4709 -0.4053  0.5193
11926WAT     H248411   2.387   6.431   6.199  1.7677  0.3058 -0.1090
11926WAT    EPW48412   2.391   6.357   6.173 -0.3686 -0.5130  0.4309
11927WAT      O48413   7.081   3.521   2.627 -0.0596  0.0252  0.1400
11927WAT     H148414   7.110   3.545   2.548  1.3009 -1.6716  0.0652
11927WAT     H248415   7.067   3.597   2.668 -1.1049  0.9472 -1.8133
11927WAT    EPW48416   7.083   3.536   2.621  0.2856 -0.4399  0.0838
11928WAT      O48417   4.603   3.945   1.106  0.2197 -0.1337 -0.0891
11928WAT     H148418   4.527   3.916   1.075  0.8181 -0.8767 -0.9193
11928WAT     H248419   4.660   3.884   1.080  1.2474  0.8899 -0.3047
11928WAT    EPW48420   4.600   3.932   1.097  0.5330 -0.1325  0.8045
11929WAT      O48421   6.701   0.311   0.758  0.1772  0.4164 -0.5569
11929WAT     H148422   6.764   0.251   0.767 -2.2228 -2.0865  0.7500
11929WAT     H248423   6.659   0.286   0.686 -0.7599  0.6289 -0.0900
11929WAT    EPW48424   6.704   0.298   0.748  0.2582 -0.1271  0.4806
11930WAT      O48425   5.821   6.385   5.257 -0.2548  0.5854 -0.4095
11930WAT     H148426   5.782   6.399   5.181  2.4934  1.9221 -1.7160
11930WAT     H248427   5.780   6.439   5.312 -2.3039 -0.4251 -0.8382
11930WAT    EPW48428   5.809   6.395   5.254 -0.3462 -0.5209  0.1261
11931WAT      O48429   1.536   0.189   4.494 -0.1002  0.0153  0.0216
11931WAT     H148430   1.523   0.116   4.540  1.1141  0.5370  1.2490
11931WAT     H248431   1.591   0.163   4.431  0.7642 -0.0226  0.7804
11931WAT    EPW48432   1.542   0.174   4.491  1.0928  0.2600 -0.5449
11932WAT      O48433   0.255   1.368   2.973 -0.0774 -0.1375  0.2764
11932WAT     H148434   0.269   1.412   2.899  0.0180 -1.7177 -0.6753
11932WAT     H248435   0.169   1.375   2.985 -0.5389 -1.9815 -1.4177
11932WAT    EPW48436   0.244   1.376   2.964 -0.0153  0.4423  0.4334
11933WAT      O48437   6.721   1.058   0.582 -0.2082 -0.1721  0.1835
11933WAT     H148438   6.721   1.145   0.593 -0.5362 -0.1546  0.0514
11933WAT     H248439   6.754   1.048   0.502  1.0059 -0.2363  0.6790
11933WAT    EPW48440   6.726   1.070   0.572  0.0736  0.0554  0.0859
11934WAT      O48441   5.663   1.168   0.734 -0.0589  1.2803  0.3198
11934WAT     H148442   5.576   1.159   0.742 -0.1071 -0.1126 -1.2100
11934WAT     H248443   5.684   1.222   0.799 -1.3133 -2.3431  4.1947
11934WAT    EPW48444   5.653   1.175   0.745  0.8776  0.1031  0.1016
11935WAT      O48445   6.930   3.940   7.190 -0.1904  0.0700 -0.1795
11935WAT     H148446   6.963   3.968   7.265 -1.8530 -1.2740  1.1304
11935WAT     H248447   6.989   3.965   7.131  2.2720 -0.7136  1.7909
11935WAT    EPW48448   6.943   3.948   7.192 -0.0671  0.0792  0.2761
11936WAT      O48449   7.255   0.669   2.162 -0.1212 -0.1207 -0.0012
11936WAT     H148450   7.299   0.650   2.235 -0.3642  0.1022  0.2051
11936WAT     H248451   7.243   0.756   2.167  2.6849  0.5032 -1.8710
11936WAT    EPW48452   7.259   0.679   2.174 -1.1718  0.0627  0.4908
11937WAT      O48453   3.947   5.977   3.223  0.3341  0.4006 -0.5424
11937WAT     H148454   3.934   6.057   3.253 -0.6461 -0.0253  0.2370
11937WAT     H248455   3.917   5.980   3.141  1.0339  1.0142 -0.7872
11937WAT    EPW48456   3.941   5.989   3.215  0.1389 -0.0645  0.1573
11938WAT      O48457   3.522   0.078   6.312 -0.0208 -0.5628 -0.2040
11938WAT     H148458   3.520   0.143   6.254 -0.6304 -0.3680  0.0214
11938WAT     H248459   3.437   0.060   6.325 -0.1203  1.3869  2.8467
11938WAT    EPW48460   3.509   0.085   6.305  0.2239 -0.4199  0.1209
11939WAT      O48461   1.783   4.318   2.426  0.5070 -0.2460  0.1286
11939WAT     H148462   1.851   4.344   2.378  1.9700  1.2946  2.7847
11939WAT     H248463   1.752   4.250   2.382  2.0163  0.7056 -2.6565
11939WAT    EPW48464   1.789   4.312   2.413  0.2450  0.0673  0.4738
11940WAT      O48465   1.456   6.926   4.482 -0.1029 -0.0275  0.3604
11940WAT     H148466   1.404   6.867   4.444 -1.9883  2.1567 -0.6800
11940WAT     H248467   1.411   6.950   4.553  1.3948 -0.9081  1.6937
11940WAT    EPW48468   1.442   6.921   4.487 -0.5531  0.4737 -0.2515
11941WAT      O48469   5.725   6.842   5.288  0.8727 -0.0653 -0.1903
11941WAT     H148470   5.801   6.880   5.268 -0.2414  1.4863 -1.6905
11941WAT     H248471   5.685   6.903   5.337 -0.0917 -0.1434 -0.8673
11941WAT    EPW48472   5.730   6.857   5.293  0.0663  0.3598 -0.2462
11942WAT      O48473   3.295   0.868   6.669 -0.3623  0.5296 -0.2193
11942WAT     H148474   3.215   0.839   6.691  0.2997 -1.7143 -0.5401
11942WAT     H248475   3.318   0.816   6.603  1.6231  0.7080  0.2842
11942WAT    EPW48476   3.286   0.856   6.663  0.1682  0.0537 -0.4665
11943WAT      O48477   7.151   3.275   3.126 -0.3183 -0.0053  0.2630
11943WAT     H148478   7.223   3.228   3.111 -0.1883  0.8718 -2.6110
11943WAT     H248479   7.104   3.226   3.181  1.3405 -1.7984  0.1522
11943WAT    EPW48480   7.154   3.261   3.132 -0.4754 -0.4153  0.0758
11944WAT      O48481   0.732   4.583   5.545  0.0531 -0.3577 -0.1421
11944WAT     H148482   0.656   4.605   5.508 -0.4840 -0.4013  0.9140
11944WAT     H248483   0.769   4.531   5.485 -0.2219  0.5598 -1.1549
11944WAT    EPW48484   0.726   4.579   5.530  0.7606  0.2004 -0.0036
11945WAT      O48485   1.232   3.410   5.759  0.9620 -0.0822 -0.2326
11945WAT     H148486   1.230   3.489   5.795  1.7283 -0.2420  0.2065
11945WAT     H248487   1.169   3.366   5.801 -0.4716  0.6851 -1.5076
11945WAT    EPW48488   1.223   3.415   5.771  0.1248  0.0946 -0.4529
11946WAT      O48489   4.893   2.177   2.163 -0.0016 -0.2377  0.1925
11946WAT     H148490   4.932   2.254   2.175  1.2810 -0.9668  0.9176
11946WAT     H248491   4.852   2.163   2.238  0.1084 -0.4382  0.2163
11946WAT    EPW48492   4.893   2.186   2.176  0.1187 -0.3828 -0.4167
11947WAT      O48493   3.373   5.562   6.529 -0.6060 -0.2677  0.4229
11947WAT     H148494   3.375   5.490   6.578 -3.3033 -2.7506 -2.6084
11947WAT     H248495   3.414   5.538   6.456 -0.3088  1.8065 -0.1543
11947WAT    EPW48496   3.379   5.548   6.525 -0.0045  0.0122 -0.1659
11948WAT      O48497   0.158   5.318   3.845  0.5165 -0.0331  0.4226
11948WAT     H148498   0.147   5.400   3.818  0.2117 -0.3494 -0.4796
11948WAT     H248499   0.118   5.316   3.922 -0.5650  0.3719 -0.1004
11948WAT    EPW48500   0.151   5.330   3.852 -0.1550  0.1849 -0.0968
11949WAT      O48501   4.837   5.813   6.654 -0.0857  0.2204  0.3140
11949WAT     H148502   4.841   5.726   6.665 -0.2184  0.4061  2.1372
11949WAT     H248503   4.919   5.839   6.668 -0.2172  0.4587  0.6681
11949WAT    EPW48504   4.850   5.804   6.658  0.1461 -0.3653 -0.1453
11950WAT      O48505   0.873   3.050   2.780  0.0742 -0.0142  1.0095
11950WAT     H148506   0.805   3.052   2.725  0.2389  0.2857  0.8144
11950WAT     H248507   0.847   3.101   2.846 -0.1447 -0.4158  1.2436
11950WAT    EPW48508   0.859   3.058   2.782  0.1568  0.2280 -0.3097
11951WAT      O48509   7.005   4.457   4.688 -0.3957 -0.2029  0.4141
11951WAT     H148510   7.036   4.403   4.750  0.8885 -0.1383 -0.1433
11951WAT     H248511   6.929   4.484   4.721 -0.6462 -1.6308  1.1195
11951WAT    EPW48512   6.998   4.453   4.702  0.1950  0.5689  0.2971
11952WAT      O48513   4.308   0.697   1.600 -0.1753  0.4050  0.5607
11952WAT     H148514   4.367   0.644   1.637  0.2662  1.3863  1.3123
11952WAT     H248515   4.339   0.708   1.519 -0.2390 -0.4228  0.4186
11952WAT    EPW48516   4.322   0.691   1.593 -0.1015  0.4944  0.1485
11953WAT      O48517   2.969   0.601   1.315 -0.2107 -0.0755 -0.3045
11953WAT     H148518   3.048   0.611   1.351 -0.7220  0.8620  0.5980
11953WAT     H248519   2.987   0.582   1.232  0.9812 -1.7154  0.2958
11953WAT    EPW48520   2.983   0.600   1.308  0.1418 -0.3994  0.4935
11954WAT      O48521   4.746   7.502   2.780  0.1812  0.1002 -0.1804
11954WAT     H148522   4.768   7.418   2.772  0.8101  0.0685  1.5283
11954WAT     H248523   4.659   7.500   2.772  0.2289 -0.6290 -0.6829
11954WAT    EPW48524   4.736   7.489   2.778 -0.0730  0.0861  0.8704
11955WAT      O48525   1.971   5.413   0.093  0.3566 -0.2927  0.1120
11955WAT     H148526   2.023   5.467   0.049  0.0483 -0.3768 -0.3616
11955WAT     H248527   1.952   5.350   0.035  0.8222 -0.9879  0.6954
11955WAT    EPW48528   1.976   5.412   0.078  0.1449  0.2212  0.0494
11956WAT      O48529   7.493   5.250   5.336 -0.6837  0.3719  0.3429
11956WAT     H148530   7.433   5.208   5.289 -0.5285  0.4624  0.0615
11956WAT     H248531   7.512   5.320   5.287  0.0831  0.0406  0.1442
11956WAT    EPW48532   7.487   5.254   5.322 -0.1612  0.4144 -0.2971
11957WAT      O48533   0.124   0.670   1.445 -0.7455  0.0028  0.1492
11957WAT     H148534   0.129   0.684   1.530  0.1831 -0.5465  0.1980
11957WAT     H248535   0.042   0.694   1.425 -0.7573  0.7872  1.0553
11957WAT    EPW48536   0.113   0.676   1.454  0.0594 -0.0259  0.1087
11958WAT      O48537   0.572   4.129   3.552 -0.2644  0.0341 -0.1367
11958WAT     H148538   0.629   4.070   3.582  1.3669  0.8698 -1.4495
11958WAT     H248539   0.532   4.088   3.486 -1.5290 -0.6908  1.0368
11958WAT    EPW48540   0.574   4.114   3.547 -0.3490  0.3235 -0.0584
11959WAT      O48541   1.533   0.705   1.903 -0.1298 -0.5969 -0.0113
11959WAT     H148542   1.616   0.678   1.894  0.1084  0.4432 -1.1428
11959WAT     H248543   1.536   0.757   1.973 -0.4755 -2.8921  1.8319
11959WAT    EPW48544   1.546   0.709   1.912  0.7819 -0.2577 -0.5226
11960WAT      O48545   4.071   1.639   4.021 -0.3708  0.1148 -0.5046
11960WAT     H148546   4.157   1.643   4.031 -0.5041 -0.1567  0.8281
11960WAT     H248547   4.051   1.557   4.042 -0.8944 -0.0091 -1.4133
11960WAT    EPW48548   4.081   1.627   4.025  0.2901  0.0528  0.1142
11961WAT      O48549   0.540   0.422   4.124  0.3007  0.0467 -0.0977
11961WAT     H148550   0.492   0.481   4.168  0.0528 -0.9753  1.0534
11961WAT     H248551   0.583   0.380   4.187  0.7183 -0.7933 -0.9301
11961WAT    EPW48552   0.539   0.425   4.139  0.3402  0.4258  0.5775
11962WAT      O48553   1.787   7.300   5.586  0.4365 -0.4053  0.1717
11962WAT     H148554   1.797   7.304   5.672  0.1075 -0.3499  0.2083
11962WAT     H248555   1.827   7.225   5.564 -0.3883 -0.9617  0.5093
11962WAT    EPW48556   1.794   7.289   5.595 -0.1586  0.4740  0.5286
11963WAT      O48557   2.257   0.820   2.419  0.3462  0.6273 -0.0526
11963WAT     H148558   2.263   0.897   2.459  2.1754  0.2137  0.5493
11963WAT     H248559   2.220   0.769   2.479 -3.0402  1.4445 -1.2018
11963WAT    EPW48560   2.253   0.824   2.434  0.3464  0.4243  0.6742
11964WAT      O48561   1.336   7.580   3.345 -0.3941  0.2422 -0.1108
11964WAT     H148562   1.370   7.517   3.394 -0.5938 -0.6246 -1.0389
11964WAT     H248563   1.250   7.568   3.354 -0.4986  2.0523  1.7678
11964WAT    EPW48564   1.328   7.569   3.353  1.2582 -0.6157 -0.0755
11965WAT      O48565   5.979   5.572   1.280  0.7900 -0.2487  0.6638
11965WAT     H148566   6.029   5.642   1.297  2.4853 -0.8429 -1.5445
11965WAT     H248567   6.022   5.507   1.318  0.1063 -0.3714  1.2499
11965WAT    EPW48568   5.993   5.573   1.288  0.2919  0.6900 -0.0786
11966WAT      O48569   5.205   5.161   3.547  0.3590  0.0706  0.1414
11966WAT     H148570   5.172   5.104   3.490 -1.1952  0.6719  0.3776
11966WAT     H248571   5.159   5.234   3.532  0.6357  0.5481  1.4535
11966WAT    EPW48572   5.194   5.163   3.536  0.5457 -0.0505 -0.1423
11967WAT      O48573   4.100   6.205   5.579 -0.0408  0.2265  0.1823
11967WAT     H148574   4.147   6.199   5.505  0.0893  0.0596  0.2795
11967WAT     H248575   4.158   6.232   5.638 -0.1731  0.4749  0.1973
11967WAT    EPW48576   4.116   6.208   5.577  0.2612 -0.0901  0.3290
11968WAT      O48577   4.058   6.199   4.170 -0.5271 -0.0341 -0.4946
11968WAT     H148578   4.047   6.174   4.253  1.7120  1.3385  0.2989
11968WAT     H248579   4.035   6.283   4.170  1.4573  0.5718 -0.6987
11968WAT    EPW48580   4.053   6.207   4.182  0.3426 -0.1581 -0.3525
11969WAT      O48581   0.198   4.227   2.723  0.0839  0.2466 -0.1706
11969WAT     H148582   0.242   4.153   2.710  1.8365  1.1737  0.1431
11969WAT     H248583   0.255   4.278   2.765 -0.6915  2.1202 -1.2284
11969WAT    EPW48584   0.213   4.224   2.727  0.3392  0.0373  0.3695
11970WAT      O48585   0.247   4.932   1.982  0.3052  0.8240 -0.4952
11970WAT     H148586   0.312   4.982   2.011  0.8347  0.1986 -0.5804
11970WAT     H248587   0.258   4.857   2.026  0.4775  0.2323 -1.5069
11970WAT    EPW48588   0.258   4.928   1.993 -0.3293 -0.3149  0.1088
11971WAT      O48589   7.354   0.439   2.739  0.8924 -0.7627  0.0438
11971WAT     H148590   7.282   0.480   2.712  1.3286 -1.2547 -2.0449
11971WAT     H248591   7.418   0.477   2.693  2.0295 -0.2270  1.9813
11971WAT    EPW48592   7.353   0.450   2.728 -0.5445 -0.1725  0.3409
11972WAT      O48593   6.472   6.802   2.368  0.0432 -0.1533 -0.2670
11972WAT     H148594   6.400   6.754   2.358  0.5227 -1.1279  0.5766
11972WAT     H248595   6.532   6.757   2.323  0.5559 -0.5158  0.7424
11972WAT    EPW48596   6.470   6.788   2.360  0.5825 -0.3881 -0.0061
11973WAT      O48597   2.146   0.300   6.989 -0.1301  0.4301 -0.2942
11973WAT     H148598   2.154   0.385   7.007  0.2147 -0.0421  2.2117
11973WAT     H248599   2.084   0.273   7.044  0.6371 -1.1414 -0.1295
11973WAT    EPW48600   2.138   0.309   7.000  0.0517 -0.2012  0.4149
11974WAT      O48601   4.199   1.629   3.149 -0.0031 -0.0120 -0.0006
11974WAT     H148602   4.132   1.680   3.171  0.2587 -0.3473  1.7678
11974WAT     H248603   4.168   1.581   3.084 -1.2597  0.3236  0.3323
11974WAT    EPW48604   4.185   1.629   3.143 -0.0087 -0.1009 -0.3971
11975WAT      O48605   0.629   7.138   3.828  0.1681  0.0656 -0.1117
11975WAT     H148606   0.622   7.105   3.909 -0.8454 -0.7618 -0.5131
11975WAT     H248607   0.665   7.216   3.841  0.5075 -0.2618  1.0901
11975WAT    EPW48608   0.633   7.144   3.842 -0.5063  0.5109  0.2072
11976WAT      O48609   0.564   6.488   0.772  0.0205 -0.2721  0.1756
11976WAT     H148610   0.599   6.562   0.740  0.8423 -0.1796  1.2257
11976WAT     H248611   0.493   6.476   0.722 -0.6466  1.7253  0.5201
11976WAT    EPW48612   0.558   6.497   0.760 -0.0306 -0.2940 -0.5300
11977WAT      O48613   5.765   0.344   3.640  0.7255  0.5186 -0.2419
11977WAT     H148614   5.849   0.342   3.615  0.4199  0.8221 -1.3324
11977WAT     H248615   5.740   0.425   3.622  0.1293  0.3580 -0.1426
11977WAT    EPW48616   5.774   0.356   3.634  0.4743  0.1345  0.2787
11978WAT      O48617   5.419   0.421   3.623 -0.2396  0.7037  0.0081
11978WAT     H148618   5.497   0.445   3.592 -0.4284  0.4315 -0.7039
11978WAT     H248619   5.423   0.334   3.623 -0.8985  0.6482 -1.0355
11978WAT    EPW48620   5.431   0.411   3.618  0.0065  0.1907  0.4619
11979WAT      O48621   0.317   3.530   5.650  0.6998 -0.4049 -0.1483
11979WAT     H148622   0.356   3.454   5.671 -1.9201 -1.4796  1.3555
11979WAT     H248623   0.276   3.511   5.575  0.7784 -0.1534 -0.2569
11979WAT    EPW48624   0.317   3.516   5.642 -0.1522  0.2287 -0.2804
11980WAT      O48625   6.640   2.075   5.630 -0.4067 -0.2999  0.0599
11980WAT     H148626   6.638   2.162   5.637  0.6787 -0.2775  0.3771
11980WAT     H248627   6.726   2.057   5.626 -0.5690 -1.4086  0.8590
11980WAT    EPW48628   6.653   2.085   5.631 -0.3972 -0.4295 -0.2323
11981WAT      O48629   6.888   2.002   5.322 -0.1052 -0.0750  0.5190
11981WAT     H148630   6.883   1.977   5.405  0.0934 -0.0151  0.5482
11981WAT     H248631   6.873   1.929   5.277  0.2115 -0.1935  0.6057
11981WAT    EPW48632   6.885   1.988   5.327 -0.0768 -0.3427  0.0675
11982WAT      O48633   3.722   2.039   4.087 -0.2156 -0.1381  0.4789
11982WAT     H148634   3.648   2.068   4.125 -0.5631  1.1115 -1.0884
11982WAT     H248635   3.775   2.108   4.089  0.2818 -0.5033 -0.0140
11982WAT    EPW48636   3.719   2.053   4.093  0.0312 -0.2413  0.0807
11983WAT      O48637   7.026   0.395   0.265  0.5936 -0.0636  0.2301
11983WAT     H148638   7.091   0.451   0.249  0.0602  0.6020  0.3295
11983WAT     H248639   6.990   0.426   0.338 -1.4075  1.1048 -1.1500
11983WAT    EPW48640   7.030   0.408   0.274  0.2298 -0.0465 -0.3335
11984WAT      O48641   3.167   0.661   2.705  0.2560 -0.6134  0.1206
11984WAT     H148642   3.250   0.662   2.732 -0.0897 -1.0374  1.2562
11984WAT     H248643   3.165   0.721   2.642  1.1114  0.4879  1.0797
11984WAT    EPW48644   3.179   0.670   2.700  0.6336 -0.2665  0.1527
11985WAT      O48645   6.381   6.883   0.813 -0.0647 -0.7904 -0.6002
11985WAT     H148646   6.386   6.941   0.749  0.1038  0.7891  0.7910
11985WAT     H248647   6.306   6.841   0.798 -0.6907  0.4671 -1.0832
11985WAT    EPW48648   6.371   6.885   0.802 -0.1459 -0.3578  0.1264
11986WAT      O48649   5.194   1.666   3.410  0.4261 -0.3802 -0.0517
11986WAT     H148650   5.229   1.743   3.428  2.2973 -0.9043 -1.2019
11986WAT     H248651   5.262   1.611   3.410 -0.6599 -1.8166 -0.4859
11986WAT    EPW48652   5.209   1.669   3.413 -0.7729 -0.4275  0.1545
11987WAT      O48653   0.361   0.735   6.510  0.2946 -0.3194 -0.5316
11987WAT     H148654   0.347   0.731   6.596 -0.5397 -1.6921 -0.6954
11987WAT     H248655   0.282   0.754   6.477  0.9148  1.7982 -0.9363
11987WAT    EPW48656   0.347   0.737   6.518 -0.3075 -0.1859 -0.6323
11988WAT      O48657   3.626   0.208   5.453 -0.3236  0.1419  0.1201
11988WAT     H148658   3.610   0.291   5.475  0.6635 -0.0199  1.5876
11988WAT     H248659   3.713   0.206   5.444 -0.0826 -1.1247  2.0862
11988WAT    EPW48660   3.636   0.220   5.455  0.1802  0.0481  0.5026
11989WAT      O48661   0.563   0.452   1.968 -0.6300 -0.3646  0.2388
11989WAT     H148662   0.635   0.480   2.009  0.9159 -0.9101 -1.9495
11989WAT     H248663   0.579   0.367   1.954 -0.2192  0.1275 -2.9920
11989WAT    EPW48664   0.576   0.443   1.972  0.0672  0.1557  0.2085
11990WAT      O48665   1.462   0.405   2.501  0.2596  0.3799 -0.1861
11990WAT     H148666   1.532   0.357   2.477  0.6419  0.9829 -0.2988
11990WAT     H248667   1.400   0.378   2.446 -0.6986 -2.7772  2.1637
11990WAT    EPW48668   1.463   0.394   2.489 -0.2049  0.7291 -0.7142
11991WAT      O48669   0.483   0.823   0.086  0.2890 -0.0422  0.1835
11991WAT     H148670   0.535   0.764   0.124 -0.4277 -0.6576  0.2289
11991WAT     H248671   0.403   0.789   0.094 -0.3846  1.6806  1.6604
11991WAT    EPW48672   0.479   0.810   0.093 -0.3625  0.4564 -0.3026
11992WAT      O48673   5.720   1.760   0.966  0.1893 -0.7223 -0.3926
11992WAT     H148674   5.709   1.744   0.881 -1.0964 -1.0455 -0.1910
11992WAT     H248675   5.693   1.843   0.975 -0.6684 -1.0171 -0.1452
11992WAT    EPW48676   5.714   1.770   0.954  0.2113 -0.4576  0.5379
11993WAT      O48677   0.903   6.357   5.333  0.4813 -0.4226  0.1498
11993WAT     H148678   0.915   6.415   5.397  2.5651 -2.2372  1.5284
11993WAT     H248679   0.851   6.296   5.369  1.8571 -1.5798  0.2677
11993WAT    EPW48680   0.897   6.356   5.347  0.0914 -0.5847 -0.6447
11994WAT      O48681   0.676   2.602   7.360  0.3491 -0.6474  0.1263
11994WAT     H148682   0.696   2.619   7.443 -1.0196 -0.7661  0.4922
11994WAT     H248683   0.669   2.682   7.324  1.8937 -0.5986 -0.1428
11994WAT    EPW48684   0.678   2.617   7.367 -1.2281  0.1924 -0.1819
11995WAT      O48685   4.243   3.750   6.926  0.3660 -0.6019 -0.1087
11995WAT     H148686   4.163   3.718   6.916 -0.3144 -0.2661  3.1627
11995WAT     H248687   4.246   3.817   6.871 -1.7505 -0.4222 -0.0862
11995WAT    EPW48688   4.232   3.755   6.917  0.3447 -0.0485  0.1529
11996WAT      O48689   0.463   0.713   6.116 -0.1567 -0.1031 -0.4438
11996WAT     H148690   0.402   0.677   6.168  0.2539  0.0263  0.1315
11996WAT     H248691   0.419   0.775   6.073 -0.5447 -0.3408 -0.3956
11996WAT    EPW48692   0.447   0.717   6.118 -0.1308  0.0875  0.3291
11997WAT      O48693   4.013   5.721   6.982  0.7395 -0.4170  0.7368
11997WAT     H148694   3.983   5.655   7.031  0.0658 -1.4214 -0.9235
11997WAT     H248695   3.993   5.696   6.900  1.5106  1.3247 -0.0330
11997WAT    EPW48696   4.006   5.708   6.977  0.1730  0.2683  0.0548
11998WAT      O48697   0.756   6.619   1.438  0.8317 -0.9134  0.0184
11998WAT     H148698   0.679   6.582   1.453  0.5719  0.0581  1.3106
11998WAT     H248699   0.797   6.562   1.386 -0.6453 -1.5651 -0.4909
11998WAT    EPW48700   0.751   6.605   1.432  0.1116 -0.0197 -0.1860
11999WAT      O48701   7.381   0.998   1.158 -0.2739 -0.5308  0.4714
11999WAT     H148702   7.332   1.037   1.097  0.2809 -0.1934  0.2351
11999WAT     H248703   7.330   1.000   1.229 -1.2236 -1.6072 -0.1537
11999WAT    EPW48704   7.366   1.004   1.160 -0.8424 -0.2954  0.2268
12000WAT      O48705   5.541   5.826   1.681 -0.3851  0.6093 -0.4799
12000WAT     H148706   5.532   5.825   1.768  0.6806 -0.7392 -0.3432
12000WAT     H248707   5.501   5.753   1.655  0.9622 -0.0307 -0.8794
12000WAT    EPW48708   5.534   5.815   1.690  0.2312 -0.3162  0.1672
12001WAT      O48709   5.688   2.957   4.254  0.2470 -0.0890 -0.0077
12001WAT     H148710   5.763   3.000   4.266 -0.3641  0.6920  1.0930
12001WAT     H248711   5.673   2.918   4.331  0.5818 -2.0106 -0.8393
12001WAT    EPW48712   5.697   2.957   4.267 -0.5398  0.0439  0.0289
12002WAT      O48713   3.625   5.063   6.967  0.1019  0.9019  0.1982
12002WAT     H148714   3.659   5.063   6.887 -0.6816 -1.4844 -0.2134
12002WAT     H248715   3.570   5.131   6.966 -0.5587  0.3990 -1.6134
12002WAT    EPW48716   3.622   5.073   6.955  0.1511 -0.1902 -0.3754
12003WAT      O48717   2.048   1.095   4.527 -0.0646 -0.7613  0.2076
12003WAT     H148718   2.004   1.092   4.452  2.8083 -0.8321 -1.6286
12003WAT     H248719   2.026   1.172   4.561 -0.6356 -0.2513 -1.2456
12003WAT    EPW48720   2.038   1.106   4.521  0.0605  0.3325 -0.4100
12004WAT      O48721   2.198  -0.012   0.012  0.6978 -0.1908  0.0307
12004WAT     H148722   2.265   0.035   0.042  0.2080  0.2854  0.3771
12004WAT     H248723   2.148   0.046  -0.029 -0.1341 -0.3208  0.8326
12004WAT    EPW48724   2.201   0.003   0.010 -0.3449 -0.2673  0.8794
12005WAT      O48725   1.184   3.406   0.645  0.2187  0.0472  0.0020
12005WAT     H148726   1.197   3.320   0.638  0.8218  0.2764 -2.5051
12005WAT     H248727   1.167   3.431   0.563  2.1299  2.6222  0.2770
12005WAT    EPW48728   1.183   3.397   0.632  0.2463  0.5852 -0.2686
12006WAT      O48729   2.819   3.551   5.489  0.1999 -0.5227  0.1405
12006WAT     H148730   2.737   3.534   5.512  0.5601 -2.0803  0.3739
12006WAT     H248731   2.841   3.618   5.540 -1.1117  0.3371 -0.3794
12006WAT    EPW48732   2.810   3.558   5.500  0.8267  0.1062  0.6297
12007WAT      O48733   2.918   4.853   2.753 -0.1223  0.4298  0.2341
12007WAT     H148734   2.983   4.896   2.794  1.0156  0.0743 -1.1050
12007WAT     H248735   2.955   4.777   2.730 -0.9072  0.3473 -0.8308
12007WAT    EPW48736   2.933   4.848   2.756 -0.2486  0.2880 -0.1747
12008WAT      O48737   3.760   7.010   6.863 -0.1623  0.1367 -0.4441
12008WAT     H148738   3.776   6.970   6.939 -1.9348 -0.9088 -0.5766
12008WAT     H248739   3.730   7.088   6.888  1.7621  0.8443 -0.1610
12008WAT    EPW48740   3.758   7.016   6.878 -0.5562  0.2719 -0.1343
12009WAT      O48741   2.779   0.261   3.794  0.0886 -0.8320  0.2119
12009WAT     H148742   2.696   0.249   3.818  0.0757 -0.4166  0.3833
12009WAT     H248743   2.788   0.210   3.724 -0.0867 -1.4868  0.6549
12009WAT    EPW48744   2.768   0.251   3.787  0.7888 -0.6712  0.1647
12010WAT      O48745   2.379   3.789   7.498 -0.1361 -0.2407  0.0264
12010WAT     H148746   2.465   3.793   7.508 -0.1380  3.2487 -0.1117
12010WAT     H248747   2.347   3.820   7.574 -0.9803  2.6572 -1.3495
12010WAT    EPW48748   2.387   3.794   7.511 -0.2642 -0.4074 -0.0047
12011WAT      O48749   6.641   0.834   1.208 -0.3307  0.2126  0.7847
12011WAT     H148750   6.709   0.843   1.154  0.0532 -2.6622  0.6060
12011WAT     H248751   6.603   0.912   1.207  0.4332  0.6987 -2.6150
12011WAT    EPW48752   6.646   0.847   1.200  0.1198  0.0443 -0.5457
12012WAT      O48753   6.106   6.449   4.901 -0.0349 -0.5486  0.3896
12012WAT     H148754   6.162   6.407   4.849 -1.3671 -0.1084 -1.5095
12012WAT     H248755   6.152   6.519   4.926  0.8112 -1.0142  0.1938
12012WAT    EPW48756   6.121   6.453   4.897  0.1363 -0.1611 -0.6756
12013WAT      O48757   6.963   1.873   1.475 -0.1289 -0.4389  0.2617
12013WAT     H148758   6.939   1.789   1.467 -0.9126 -0.2882  0.9448
12013WAT     H248759   7.036   1.868   1.524  1.9348 -0.9727 -2.6051
12013WAT    EPW48760   6.970   1.860   1.481 -0.2402  0.1291  0.5530
12014WAT      O48761   4.856   3.819   1.044 -0.2741  0.0455 -0.3408
12014WAT     H148762   4.882   3.740   1.071 -0.8959 -0.4958 -1.2559
12014WAT     H248763   4.931   3.862   1.029  0.0723 -0.1626  0.7025
12014WAT    EPW48764   4.871   3.814   1.046 -0.4770 -0.4154 -0.6807
12015WAT      O48765   5.233   6.423   5.695  0.4474 -0.1546  0.1040
12015WAT     H148766   5.306   6.382   5.720  0.9297  2.1343  3.1443
12015WAT     H248767   5.169   6.378   5.733  1.0026  1.7768  3.7793
12015WAT    EPW48768   5.234   6.411   5.704  0.8037  0.3340  0.2030
12016WAT      O48769   1.888   7.205   4.871 -0.1678  0.0321  0.3060
12016WAT     H148770   1.865   7.134   4.826 -1.5427  0.5122  0.2014
12016WAT     H248771   1.915   7.173   4.948 -0.9995 -0.5930  0.3515
12016WAT    EPW48772   1.889   7.190   4.875 -0.3886 -0.4831  0.0336
12017WAT      O48773   2.599   2.844   6.583  0.6870  0.4589  0.3064
12017WAT     H148774   2.648   2.847   6.510  0.1817 -1.0885 -0.1384
12017WAT     H248775   2.570   2.762   6.584 -3.4873  1.7165 -0.5177
12017WAT    EPW48776   2.602   2.832   6.572 -0.4886  0.1686  0.2685
12018WAT      O48777   4.371   2.207   6.867 -0.0239 -0.3444  0.2574
12018WAT     H148778   4.364   2.260   6.798 -0.0893  2.0904  1.9862
12018WAT     H248779   4.291   2.208   6.902 -0.2463 -2.3188 -0.0982
12018WAT    EPW48780   4.358   2.215   6.862  0.1786 -0.3466  0.4207
12019WAT      O48781   0.030   3.131   3.758  0.1261 -0.0298  0.0133
12019WAT     H148782   0.086   3.179   3.805 -0.4720  0.6373  0.0615
12019WAT     H248783   0.078   3.103   3.691  1.0245 -1.0719  1.0423
12019WAT    EPW48784   0.045   3.134   3.755  0.2899 -0.1724 -0.1261
12020WAT      O48785   7.643   3.786   0.459 -0.4208  0.3127 -0.2525
12020WAT     H148786   7.636   3.818   0.379 -1.3622 -2.0898 -1.2363
12020WAT     H248787   7.566   3.745   0.471 -0.9129  1.7954  2.4792
12020WAT    EPW48788   7.630   3.784   0.449  0.8142  0.0650  0.6637
12021WAT      O48789   2.447   2.262   2.424  0.2320  0.6140  0.3056
12021WAT     H148790   2.499   2.315   2.377  0.5690  0.5831  0.6339
12021WAT     H248791   2.499   2.235   2.489 -0.5328  1.5565  1.3598
12021WAT    EPW48792   2.463   2.266   2.427  0.1453 -0.1519  0.2689
12022WAT      O48793   1.934   1.403   5.216 -0.0972 -1.0064  0.0862
12022WAT     H148794   2.018   1.427   5.209 -0.1355 -1.0599 -0.7290
12022WAT     H248795   1.895   1.448   5.152 -0.9663  0.1591  1.3893
12022WAT    EPW48796   1.941   1.413   5.205 -0.3073  0.3206  0.0958
12023WAT      O48797   0.210   6.519   7.038  0.0914  0.0372  0.5009
12023WAT     H148798   0.266   6.455   7.057 -0.2866 -0.5987 -0.4485
12023WAT     H248799   0.190   6.505   6.954 -0.3180  1.1585  0.3900
12023WAT    EPW48800   0.215   6.508   7.028  0.0948  0.2392  0.4240
12024WAT      O48801   2.874   4.203   0.769  0.4633 -0.0668  0.0884
12024WAT     H148802   2.920   4.274   0.752 -0.2290  0.4815  0.4403
12024WAT     H248803   2.793   4.233   0.783 -0.0210 -0.9986 -0.5436
12024WAT    EPW48804   2.869   4.218   0.769 -0.2118 -0.6812  0.3451
12025WAT      O48805   5.888   3.363   5.368  0.1035  0.4466  0.4984
12025WAT     H148806   5.869   3.296   5.315 -0.9719  0.9181  0.2538
12025WAT     H248807   5.838   3.347   5.438  0.2696  0.6931  0.6728
12025WAT    EPW48808   5.878   3.351   5.371  0.1179  0.5509  0.1417
12026WAT      O48809   4.326   0.620   0.568 -0.1623  0.1001 -0.0547
12026WAT     H148810   4.276   0.610   0.497 -0.6367 -2.3625  0.5204
12026WAT     H248811   4.406   0.601   0.539 -0.0049  1.1562 -0.3469
12026WAT    EPW48812   4.330   0.616   0.553  0.1877 -0.0569  0.5053
12027WAT      O48813   4.087   2.882   7.419 -0.1537  0.2838  0.0046
12027WAT     H148814   4.151   2.854   7.368 -0.2314  0.3818 -0.1478
12027WAT     H248815   4.123   2.946   7.465  0.8599 -1.8184  2.3898
12027WAT    EPW48816   4.101   2.887   7.419  0.2149  0.0720  0.2071
12028WAT      O48817   3.087   0.558   2.283 -0.0360 -0.6268 -0.1904
12028WAT     H148818   3.029   0.600   2.333  0.1634  0.2546 -0.6905
12028WAT     H248819   3.063   0.474   2.291 -0.2930 -0.4590  1.0101
12028WAT    EPW48820   3.075   0.551   2.292 -0.3100  0.1845 -0.1958
12029WAT      O48821   3.863   6.073   0.822  0.1774  0.4780  0.0347
12029WAT     H148822   3.876   6.000   0.776  0.2800  0.9580 -0.7258
12029WAT     H248823   3.895   6.054   0.901  2.1608  0.3749 -0.7315
12029WAT    EPW48824   3.870   6.060   0.827 -0.6036 -0.0969 -0.5892
12030WAT      O48825   6.980   4.818   1.980  0.1062 -0.1075 -0.0864
12030WAT     H148826   6.925   4.809   2.047 -0.1977  1.4346 -0.0867
12030WAT     H248827   7.047   4.863   2.014  0.6760 -0.6634 -0.4469
12030WAT    EPW48828   6.982   4.823   1.995 -0.4228 -0.6428  0.0004
12031WAT      O48829   2.468   4.394   6.273 -0.4707 -0.0935  0.1583
12031WAT     H148830   2.489   4.469   6.233 -0.7271 -0.5313 -0.8340
12031WAT     H248831   2.540   4.376   6.320  0.0163  0.2214 -0.4410
12031WAT    EPW48832   2.482   4.403   6.274  0.3595  0.3483 -0.1225
12032WAT      O48833   0.178   0.238   1.149  0.1806 -0.2132  0.5214
12032WAT     H148834   0.177   0.293   1.081 -2.7070 -0.8944 -0.1224
12032WAT     H248835   0.205   0.287   1.215 -2.4093  2.1670  0.0107
12032WAT    EPW48836   0.182   0.253   1.149 -0.0675  0.0563  0.6364
12033WAT      O48837   1.121   2.266   4.508 -0.4049  0.2098  0.4078
12033WAT     H148838   1.184   2.259   4.569  2.9812 -1.2254 -2.8485
12033WAT     H248839   1.078   2.190   4.514 -0.9722  0.6117  1.7492
12033WAT    EPW48840   1.124   2.254   4.518  0.6597 -0.4038 -0.4634
12034WAT      O48841   6.574   0.095   4.581  0.2982  0.2146  0.0705
12034WAT     H148842   6.593   0.164   4.632  0.5188 -0.4377  0.8833
12034WAT     H248843   6.632   0.035   4.605 -1.0158 -0.8666  0.6286
12034WAT    EPW48844   6.585   0.097   4.592  0.6844 -0.0514  0.5173
12035WAT      O48845   5.529   7.256   1.111 -0.8630  0.3308  0.4946
12035WAT     H148846   5.532   7.319   1.170  0.2586 -0.6658  1.5652
12035WAT     H248847   5.468   7.283   1.055  0.5297  3.0290  0.1003
12035WAT    EPW48848   5.520   7.269   1.111  0.2353  0.0792  0.1954
12036WAT      O48849   3.354   6.879   1.485 -0.1206  0.1875 -0.2327
12036WAT     H148850   3.301   6.932   1.528  2.1949  1.4289  1.3170
12036WAT     H248851   3.375   6.924   1.413 -0.2463  0.2194 -0.2485
12036WAT    EPW48852   3.350   6.893   1.480  0.3741 -0.2139  0.4362
12037WAT      O48853   5.994   0.124   3.111 -0.2098 -0.1495 -0.2105
12037WAT     H148854   5.981   0.164   3.035 -2.0296 -1.1807 -0.4910
12037WAT     H248855   6.061   0.070   3.094 -0.8676 -0.6811 -1.2302
12037WAT    EPW48856   6.002   0.122   3.097  0.3385  0.0296 -0.3076
12038WAT      O48857   6.421   1.097   6.049 -0.2194  0.3660 -0.2835
12038WAT     H148858   6.386   1.020   6.070 -0.2792  0.5401  0.2580
12038WAT     H248859   6.500   1.076   6.019  0.8169  0.2519  2.2497
12038WAT    EPW48860   6.427   1.082   6.048 -0.3701  0.8732  0.3218
12039WAT      O48861   6.921   0.779   0.246 -0.7819 -0.3784 -0.1568
12039WAT     H148862   6.910   0.852   0.292 -1.0194 -2.0201  2.6501
12039WAT     H248863   6.840   0.748   0.237 -0.5797 -0.9098 -0.1993
12039WAT    EPW48864   6.907   0.785   0.252  0.6664 -0.3131  0.3727
12040WAT      O48865   3.302   4.043   6.341 -0.3790  0.3185 -0.1730
12040WAT     H148866   3.297   4.002   6.418 -0.9132  2.2615  0.8852
12040WAT     H248867   3.374   4.091   6.348  0.3550 -0.5080 -1.4796
12040WAT    EPW48868   3.312   4.044   6.354  0.4591 -0.0219 -0.3285
12041WAT      O48869   0.144   7.507   3.191  0.1853 -0.9015  0.3656
12041WAT     H148870   0.124   7.584   3.156  0.5659 -1.1361 -0.3976
12041WAT     H248871   0.202   7.527   3.253  0.3921 -0.5769  0.0744
12041WAT    EPW48872   0.150   7.521   3.195 -0.1032  0.4053  0.1391
12042WAT      O48873   7.535   0.698   4.604 -0.4878  0.0192 -0.7888
12042WAT     H148874   7.482   0.691   4.674 -1.2963  0.7573 -1.3071
12042WAT     H248875   7.488   0.743   4.547  0.3002 -0.2731 -1.6991
12042WAT    EPW48876   7.520   0.704   4.606 -0.2534  0.2059 -0.4786
12043WAT      O48877   0.177   6.209   5.241 -0.4276 -0.3171  0.5643
12043WAT     H148878   0.177   6.254   5.315 -1.5416  0.7817 -0.0668
12043WAT     H248879   0.158   6.268   5.180 -0.6952 -1.4044 -0.4619
12043WAT    EPW48880   0.175   6.224   5.243  0.2647 -0.0666  0.0432
12044WAT      O48881   6.288   3.482   1.304 -0.0795 -0.4160  0.1565
12044WAT     H148882   6.353   3.492   1.361 -0.7049 -0.0382  0.8082
12044WAT     H248883   6.252   3.561   1.298 -0.0878 -0.4682 -0.6920
12044WAT    EPW48884   6.292   3.495   1.311 -0.3953 -0.3675 -0.1848
12045WAT      O48885   7.360   5.026   0.476 -0.1315  0.4250 -0.1423
12045WAT     H148886   7.311   4.977   0.529 -0.8059  2.5559  1.3245
12045WAT     H248887   7.355   4.984   0.400 -2.4527 -0.6358  0.4973
12045WAT    EPW48888   7.352   5.013   0.472  0.2168  0.4672  0.2688
12046WAT      O48889   1.365   7.567   1.117  0.2023  0.1822  0.4118
12046WAT     H148890   1.397   7.486   1.124 -0.2342 -0.1101 -0.7139
12046WAT     H248891   1.410   7.601   1.050 -2.1846 -0.4722 -1.6961
12046WAT    EPW48892   1.376   7.560   1.108 -0.4817  0.6336 -0.1781
12047WAT      O48893   5.442   1.391   3.054 -0.4860  0.1595 -0.1436
12047WAT     H148894   5.516   1.348   3.035 -0.2722 -0.0028  0.9736
12047WAT     H248895   5.448   1.463   3.006  0.7779  0.5014  0.4710
12047WAT    EPW48896   5.454   1.395   3.044  0.4998  0.1716  0.3648
12048WAT      O48897   4.010   4.865   2.028 -0.6626  0.2206 -0.2274
12048WAT     H148898   3.965   4.815   2.084 -1.7066  2.0459  0.6530
12048WAT     H248899   4.089   4.872   2.065 -0.4977 -0.7671 -0.3771
12048WAT    EPW48900   4.015   4.859   2.042 -0.2611  0.5505  0.1116
12049WAT      O48901   0.524   0.248   0.145  0.0312  0.0893 -0.3905
12049WAT     H148902   0.525   0.175   0.097 -0.3682 -0.1155 -0.1005
12049WAT     H248903   0.606   0.278   0.139  0.2311 -0.4488 -0.4156
12049WAT    EPW48904   0.536   0.242   0.137 -0.0728  0.5556  0.5622
12050WAT      O48905   2.089   2.173   7.603 -0.2121 -0.4718  0.2419
12050WAT     H148906   2.137   2.223   7.550 -1.2203 -0.2441 -0.4838
12050WAT     H248907   2.113   2.092   7.583  1.2334 -0.3264  1.2264
12050WAT    EPW48908   2.100   2.169   7.592  0.8557  0.1792  0.1628
12051WAT      O48909   5.311   0.198   1.321 -0.5132 -0.3956 -0.6242
12051WAT     H148910   5.381   0.166   1.362  0.2476  0.2964 -1.3393
12051WAT     H248911   5.345   0.257   1.267 -1.6233 -0.3556 -1.2955
12051WAT    EPW48912   5.326   0.202   1.319  0.0396  1.0729  0.2009
12052WAT      O48913   2.105   6.090   7.181 -0.0309 -0.3669  0.1419
12052WAT     H148914   2.118   6.168   7.143 -0.7517 -0.9218 -1.3599
12052WAT     H248915   2.040   6.106   7.237  1.0330  0.4738  1.1871
12052WAT    EPW48916   2.097   6.104   7.184 -0.3006  0.1139 -0.5776
12053WAT      O48917   2.792   0.633   4.150 -0.5926  0.0429 -0.5234
12053WAT     H148918   2.793   0.637   4.237 -1.6851 -0.6856 -0.4531
12053WAT     H248919   2.760   0.553   4.133  0.9249 -0.3746 -1.6112
12053WAT    EPW48920   2.787   0.622   4.160 -0.2758  0.2502 -0.6481
12054WAT      O48921   5.357   0.093   3.508 -0.4364 -0.0727 -0.1792
12054WAT     H148922   5.376   0.096   3.593 -0.9853 -2.5741  0.1104
12054WAT     H248923   5.273   0.115   3.505 -0.4301 -0.0357 -0.0815
12054WAT    EPW48924   5.348   0.097   3.520  0.2648 -0.3481 -0.8132
12055WAT      O48925   0.409   1.625   2.859  0.1086  0.2290 -0.0179
12055WAT     H148926   0.337   1.671   2.843 -0.8848 -0.4325  2.1884
12055WAT     H248927   0.463   1.684   2.894  0.0194  0.3794 -0.1328
12055WAT    EPW48928   0.407   1.641   2.862 -0.5300  1.0469  0.0335
12056WAT      O48929   1.893   5.556   1.660  0.4388 -0.3351  0.1135
12056WAT     H148930   1.813   5.589   1.644  0.1638 -0.7126  0.6758
12056WAT     H248931   1.879   5.470   1.662  0.5948 -0.3505  1.5523
12056WAT    EPW48932   1.879   5.548   1.658 -0.0331 -0.1171  0.0526
12057WAT      O48933   3.472   1.568   0.635 -0.2045 -0.6999 -0.1008
12057WAT     H148934   3.545   1.549   0.679 -0.0411  2.8522  1.5273
12057WAT     H248935   3.501   1.614   0.567 -0.8266  0.0592  0.1325
12057WAT    EPW48936   3.487   1.572   0.631 -0.0058  0.0779  0.2137
12058WAT      O48937   4.809   3.799   7.336  0.9411 -0.1891  0.6486
12058WAT     H148938   4.872   3.806   7.276  0.1848  1.9502  0.0219
12058WAT     H248939   4.814   3.874   7.381 -1.1148  0.0565  0.5865
12058WAT    EPW48940   4.819   3.811   7.334 -0.7252 -0.1908  0.1306
12059WAT      O48941   5.126   2.823   1.422  0.7846 -0.0243 -0.0572
12059WAT     H148942   5.106   2.756   1.370 -2.8638  0.9310 -0.1194
12059WAT     H248943   5.113   2.791   1.502 -0.1339  0.3368 -0.0528
12059WAT    EPW48944   5.121   2.808   1.426  0.3627 -0.6809  0.0739
12060WAT      O48945   1.437   1.311   4.176  0.1676 -0.1811  0.5138
12060WAT     H148946   1.408   1.268   4.246 -2.1231 -0.1042 -0.2992
12060WAT     H248947   1.389   1.384   4.176  1.0300  0.4083 -0.4252
12060WAT    EPW48948   1.425   1.316   4.186  0.3399 -0.2330 -0.0662
12061WAT      O48949   1.170   3.045   5.511 -0.1102  0.4314  0.3006
12061WAT     H148950   1.215   3.084   5.447 -0.7721  0.0389 -0.4087
12061WAT     H248951   1.228   3.042   5.576  0.1723  2.0314  0.1849
12061WAT    EPW48952   1.185   3.051   5.511 -0.1595  0.2969  0.6057
12062WAT      O48953   1.290   6.624   3.080 -0.4262  0.5638 -0.0093
12062WAT     H148954   1.245   6.699   3.086 -0.1556  1.0837 -2.9679
12062WAT     H248955   1.360   6.639   3.130 -1.0825  1.7099  0.6197
12062WAT    EPW48956   1.294   6.637   3.089 -0.0455 -0.0942 -0.0397
12063WAT      O48957   1.032   6.613   1.185 -0.0952 -0.2644  0.1605
12063WAT     H148958   1.004   6.548   1.236  0.0339  0.2572  0.9177
12063WAT     H248959   0.963   6.667   1.181  0.0196 -0.1216  0.0978
12063WAT    EPW48960   1.018   6.612   1.192  0.6305  0.3639 -0.5702
12064WAT      O48961   3.722   5.498   5.220 -0.1253  0.5205  0.1769
12064WAT     H148962   3.723   5.426   5.270  0.0279 -0.3132 -1.0067
12064WAT     H248963   3.804   5.506   5.192 -0.0897  1.2994  0.4621
12064WAT    EPW48964   3.734   5.489   5.224  0.5504 -0.4426  0.0467
12065WAT      O48965   7.550   5.651   3.121 -0.4238 -0.2196 -0.0038
12065WAT     H148966   7.557   5.657   3.208  0.4266 -1.9717  0.0902
12065WAT     H248967   7.617   5.599   3.098 -1.5280 -1.0602 -1.5141
12065WAT    EPW48968   7.561   5.644   3.130  0.0393 -0.2161 -0.0034
12066WAT      O48969   0.828   4.831   4.652 -0.3085  0.5643 -0.7094
12066WAT     H148970   0.789   4.895   4.698 -1.4248 -2.1644  2.6265
12066WAT     H248971   0.902   4.817   4.697 -1.5711 -2.3969  0.7300
12066WAT    EPW48972   0.833   4.838   4.666 -0.1537 -0.1202 -0.5907
12067WAT      O48973   6.401   1.757   7.549 -0.5176 -0.5950 -0.6826
12067WAT     H148974   6.409   1.726   7.630 -0.3286  1.3367  0.0939
12067WAT     H248975   6.357   1.832   7.560  0.3748  0.2065 -2.2371
12067WAT    EPW48976   6.396   1.764   7.562 -0.0509 -0.8030 -0.3811
12068WAT      O48977   0.348   2.119   5.639 -0.0660  0.4091  0.1373
12068WAT     H148978   0.367   2.100   5.556  0.3360  0.2918  0.2522
12068WAT     H248979   0.353   2.206   5.643  2.0117  0.3235  0.5136
12068WAT    EPW48980   0.351   2.129   5.628  0.1368 -0.7516 -0.1552
12069WAT      O48981   3.320   2.140   1.337  0.5031 -0.2311 -0.3475
12069WAT     H148982   3.383   2.200   1.342  0.9119 -0.7275  1.0874
12069WAT     H248983   3.292   2.134   1.420 -0.8297 -0.6576 -0.8068
12069WAT    EPW48984   3.325   2.148   1.350  0.0753 -0.1738  0.3773
12070WAT      O48985   0.977   1.164   7.359 -0.0817  0.3346 -0.1585
12070WAT     H148986   1.048   1.115   7.365  0.2819  0.7654 -0.7379
12070WAT     H248987   0.919   1.112   7.318  0.6145  0.6891 -1.6513
12070WAT    EPW48988   0.979   1.149   7.354  0.0760  0.3434  0.1438
12071WAT      O48989   6.970   4.447   6.565  0.1938  0.0795 -0.1532
12071WAT     H148990   6.929   4.369   6.564  1.6085 -0.7071  0.4301
12071WAT     H248991   7.051   4.427   6.588  0.6809  1.7183 -0.3341
12071WAT    EPW48992   6.976   4.432   6.569 -0.2128 -0.1031  0.1448
12072WAT      O48993   5.283   2.169   1.772  0.2734  0.4565 -0.0662
12072WAT     H148994   5.301   2.105   1.828  1.4717  1.0363  0.2332
12072WAT     H248995   5.260   2.235   1.824 -0.4771  0.4308 -0.3535
12072WAT    EPW48996   5.282   2.169   1.788 -0.6347  0.4423  0.1110
12073WAT      O48997   7.197   2.268   3.149 -0.4172  0.6379 -0.0456
12073WAT     H148998   7.130   2.232   3.107  0.0924 -2.2360  1.3214
12073WAT     H248999   7.162   2.293   3.225 -0.1256 -0.0881  0.3333
12073WAT    EPW49000   7.182   2.267   3.154 -0.1163  0.0645 -0.3178
12074WAT      O49001   3.280   1.027   1.798 -0.3228 -0.4404 -0.0480
12074WAT     H149002   3.313   1.101   1.829  0.5762 -1.5462  1.8692
12074WAT     H249003   3.304   1.026   1.714  2.6622 -0.1071  0.6965
12074WAT    EPW49004   3.288   1.038   1.790  0.1604 -0.4498  0.6451
12075WAT      O49005   1.968   1.355   4.576 -0.0188  0.0292 -0.0801
12075WAT     H149006   1.894   1.367   4.532 -0.2990  2.0294  0.8539
12075WAT     H249007   1.943   1.316   4.650  0.2224 -1.5712 -0.7908
12075WAT    EPW49008   1.954   1.351   4.580  0.4197  0.2062  0.0637
12076WAT      O49009   2.352   1.644   4.148  0.0035 -0.6596 -0.6263
12076WAT     H149010   2.416   1.603   4.105  0.6042 -0.6354  0.2463
12076WAT     H249011   2.283   1.632   4.096  0.6327 -0.9562 -1.4215
12076WAT    EPW49012   2.351   1.636   4.134 -0.1137  0.1000  0.6456
12077WAT      O49013   2.833   5.296   0.514 -0.1187 -0.3339 -0.2762
12077WAT     H149014   2.776   5.340   0.562  1.5678  1.1924  0.4307
12077WAT     H249015   2.800   5.301   0.433 -1.1203  0.2238  0.1551
12077WAT    EPW49016   2.820   5.303   0.509  0.5648  0.3513 -0.6399
12078WAT      O49017   2.319   3.959   6.836  0.2451  0.7785  0.1402
12078WAT     H149018   2.376   3.957   6.771  1.2318 -2.8049  0.8768
12078WAT     H249019   2.255   3.907   6.809 -0.5183  1.1746  1.0977
12078WAT    EPW49020   2.318   3.951   6.823 -0.4450  0.7643 -0.1736
12079WAT      O49021   0.189   6.195   1.145  0.1621  0.2482  0.0495
12079WAT     H149022   0.111   6.158   1.137  0.2283  0.2281 -0.6081
12079WAT     H249023   0.242   6.141   1.101  0.8480 -0.5922  1.8179
12079WAT    EPW49024   0.185   6.181   1.137  0.1311  0.0252  0.0982
12080WAT      O49025   1.321   3.399   7.071  0.1884  0.7786  0.1694
12080WAT     H149026   1.370   3.375   7.003 -0.6437 -0.1609 -0.1184
12080WAT     H249027   1.245   3.423   7.034  0.1449  1.4527  0.6735
12080WAT    EPW49028   1.317   3.399   7.055  0.3262  0.4496 -0.0927
12081WAT      O49029   1.691   6.629   5.572 -0.3299 -0.1265  0.2768
12081WAT     H149030   1.731   6.600   5.500  0.6191 -0.6176  0.9927
12081WAT     H249031   1.691   6.560   5.625  1.0021  0.8445  1.6055
12081WAT    EPW49032   1.697   6.614   5.569 -0.3006 -0.3219  0.2483
12082WAT      O49033   7.400   3.740   2.511 -0.2105 -0.4357 -0.3459
12082WAT     H149034   7.479   3.745   2.473 -0.1411  1.5879 -0.0325
12082WAT     H249035   7.406   3.794   2.579 -1.9964  0.1454 -0.5874
12082WAT    EPW49036   7.413   3.749   2.515  0.1034  0.3565  0.0924
12083WAT      O49037   6.469   6.833   7.333  0.2174  0.1297  0.6176
12083WAT     H149038   6.406   6.796   7.285  1.7965  1.6816 -3.1166
12083WAT     H249039   6.441   6.915   7.345  0.5611  0.2147  0.8441
12083WAT    EPW49040   6.456   6.840   7.327 -0.1578 -0.8938 -0.1713
12084WAT      O49041   2.039   7.461   3.376 -0.3524  0.0431  0.2863
12084WAT     H149042   2.064   7.531   3.331 -0.6042  0.2576  0.4765
12084WAT     H249043   1.956   7.478   3.395 -0.5107 -0.4542  0.0520
12084WAT    EPW49044   2.030   7.474   3.372 -0.2827 -0.4413  0.4540
12085WAT      O49045   6.387   4.986   7.301 -0.2154 -0.0178  0.0455
12085WAT     H149046   6.356   4.910   7.271  0.1597  0.2291 -1.0327
12085WAT     H249047   6.354   5.045   7.245 -0.3609  0.5901  0.7630
12085WAT    EPW49048   6.378   4.984   7.288 -0.5708  0.4742  0.5196
12086WAT      O49049   6.367   4.930   3.682 -0.3262 -0.1302  0.7962
12086WAT     H149050   6.379   5.016   3.688 -2.4144  0.3452 -0.5421
12086WAT     H249051   6.430   4.904   3.629 -1.0290  1.0193 -0.6723
12086WAT    EPW49052   6.378   4.939   3.675  0.0713 -0.0642  0.0858
12087WAT      O49053   0.656   1.272   1.885  0.1569  0.4527 -0.3964
12087WAT     H149054   0.725   1.326   1.890 -0.2002  0.8306  0.8866
12087WAT     H249055   0.619   1.292   1.809  0.8728  0.9817 -0.6122
12087WAT    EPW49056   0.661   1.283   1.875  0.0379  0.3209 -0.0507
12088WAT      O49057   6.996   6.335   6.492 -0.3017 -0.1616 -0.0759
12088WAT     H149058   7.038   6.346   6.416  1.0604  0.2712  0.7090
12088WAT     H249059   6.940   6.402   6.494  2.0363  1.9275  0.8000
12088WAT    EPW49060   6.994   6.347   6.481  0.2175  0.3386  0.2090
12089WAT      O49061   3.624   0.650   3.115  0.4271  0.2350 -0.0715
12089WAT     H149062   3.595   0.593   3.174  1.0881 -0.3759 -0.3216
12089WAT     H249063   3.575   0.720   3.129 -0.7933 -0.5783 -0.1366
12089WAT    EPW49064   3.613   0.652   3.126  0.2804  0.4223  0.6116
12090WAT      O49065   7.041   2.635   4.986 -0.4375  0.9128  0.5979
12090WAT     H149066   7.014   2.697   5.040  0.4490  1.3549  0.5610
12090WAT     H249067   7.064   2.570   5.040  0.4783  1.3659  0.7828
12090WAT    EPW49068   7.041   2.634   5.002  0.4818  0.0372 -0.2551
12091WAT      O49069   2.512   2.233   1.121  0.2170 -0.0004 -0.3546
12091WAT     H149070   2.444   2.285   1.105  0.5260  0.0879 -1.4719
12091WAT     H249071   2.526   2.193   1.044  1.4662  0.0472 -0.1770
12091WAT    EPW49072   2.504   2.235   1.107  0.0056 -0.1202  0.5557
12092WAT      O49073   0.959   3.145   4.537 -0.2462 -0.1376  0.2142
12092WAT     H149074   0.926   3.078   4.583  0.2284 -0.4378  0.1260
12092WAT     H249075   1.036   3.115   4.509  0.1326  0.5636  0.4634
12092WAT    EPW49076   0.966   3.131   4.540 -0.1110  0.9126 -0.9623
12093WAT      O49077   0.424   3.810   2.927  0.0460  0.7076  0.2101
12093WAT     H149078   0.449   3.759   2.993  0.4080 -0.3243 -0.6944
12093WAT     H249079   0.378   3.757   2.876  0.0404  1.3953 -0.5306
12093WAT    EPW49080   0.421   3.795   2.929  0.1098  0.0794 -0.5845
12094WAT      O49081   2.139   4.550   0.864  0.0942  0.2628 -0.6147
12094WAT     H149082   2.120   4.635   0.858  1.5275  0.5622 -1.1549
12094WAT     H249083   2.212   4.549   0.912  0.2421 -0.6393 -0.8498
12094WAT    EPW49084   2.147   4.563   0.871  0.1327  0.4011 -1.1638
12095WAT      O49085   0.572   6.704   4.444  0.0403  0.2090  0.4428
12095WAT     H149086   0.583   6.622   4.415 -0.7305  0.8587 -1.8655
12095WAT     H249087   0.636   6.748   4.404  0.4229  0.7848  1.6365
12095WAT    EPW49088   0.583   6.698   4.434 -0.0556 -0.2439  0.1330
12096WAT      O49089   7.162   5.742   6.019  0.3021 -0.0503  0.0686
12096WAT     H149090   7.104   5.678   6.009  1.3166 -0.8247 -1.0813
12096WAT     H249091   7.112   5.813   6.027 -0.8158 -0.6433 -1.2909
12096WAT    EPW49092   7.146   5.743   6.019 -0.5313  0.0607  0.1194
12097WAT      O49093   1.695   7.152   3.298  0.2331  0.4654 -0.6555
12097WAT     H149094   1.708   7.222   3.348  1.3603  0.0412 -0.3196
12097WAT     H249095   1.691   7.184   3.217 -0.3742  1.0277 -0.4108
12097WAT    EPW49096   1.697   7.167   3.293 -0.5837 -0.1173  0.2928
12098WAT      O49097   3.277   0.551   7.008 -0.1577 -0.5712 -0.1460
12098WAT     H149098   3.347   0.604   7.014 -0.0934 -0.5547 -0.9260
12098WAT     H249099   3.298   0.497   6.943 -2.2280  1.6169 -2.9174
12098WAT    EPW49100   3.291   0.551   6.999 -0.1286 -0.6875  0.0871
12099WAT      O49101   6.165   1.048   0.284  0.6158 -0.0520 -0.2856
12099WAT     H149102   6.164   1.035   0.370 -3.0946 -0.0039 -0.1714
12099WAT     H249103   6.219   1.116   0.274  0.2753  0.6762  2.1525
12099WAT    EPW49104   6.173   1.056   0.295  0.0087  0.0547 -0.1617
12100WAT      O49105   3.218   1.367   6.580 -0.2510 -0.4031  0.4055
12100WAT     H149106   3.189   1.406   6.653 -1.5049  0.9548 -0.7581
12100WAT     H249107   3.168   1.402   6.517  1.9244 -0.2242 -1.3386
12100WAT    EPW49108   3.206   1.378   6.582 -0.0120 -0.7232  0.5961
12101WAT      O49109   2.521   3.241   6.535 -0.1427  0.4388  0.0823
12101WAT     H149110   2.568   3.204   6.600 -0.2611  0.0797 -0.0322
12101WAT     H249111   2.533   3.185   6.468  0.2147  0.9562 -0.2915
12101WAT    EPW49112   2.530   3.227   6.535 -0.2816 -0.2456 -0.0520
12102WAT      O49113   0.268   3.120   6.119  0.1086 -0.0643  0.9906
12102WAT     H149114   0.255   3.154   6.040 -1.3358 -2.5115  0.0693
12102WAT     H249115   0.246   3.036   6.109 -0.6398 -0.3493  4.1298
12102WAT    EPW49116   0.263   3.113   6.106  0.2294  0.4213  0.2591
12103WAT      O49117   5.568   4.682   3.728 -0.2705  0.3137  0.4186
12103WAT     H149118   5.629   4.651   3.782 -0.3915 -0.1924  0.2681
12103WAT     H249119   5.579   4.768   3.732 -1.1121  0.3733  2.2423
12103WAT    EPW49120   5.579   4.690   3.736  0.1678  0.2847  0.0574
12104WAT      O49121   6.695   6.679   1.382 -0.4919  0.1756 -0.1442
12104WAT     H149122   6.617   6.676   1.344 -1.7379 -0.3027  2.2320
12104WAT     H249123   6.694   6.753   1.428 -1.1213 -1.4630  2.7486
12104WAT    EPW49124   6.683   6.689   1.383 -0.2296  0.3225 -0.4909
12105WAT      O49125   1.162   1.578   0.800  0.0212 -0.0316 -0.5584
12105WAT     H149126   1.099   1.602   0.744  0.2266 -0.3720 -0.9293
12105WAT     H249127   1.139   1.620   0.874 -0.6971 -0.2291 -0.6616
12105WAT    EPW49128   1.149   1.588   0.803 -0.4856 -0.1860 -0.3030
12106WAT      O49129   1.171   7.561   1.978 -0.3690 -0.1298  1.3277
12106WAT     H149130   1.105   7.518   2.015  0.3872 -0.3435  2.4960
12106WAT     H249131   1.230   7.499   1.962 -0.3834  0.0793  0.4402
12106WAT    EPW49132   1.170   7.545   1.981 -0.4026  0.3320 -0.2154
12107WAT      O49133   1.548   5.904   4.736  0.2108  0.1555  0.6245
12107WAT     H149134   1.498   5.891   4.807  0.0649 -0.9532  0.3279
12107WAT     H249135   1.545   5.828   4.694  0.1364  0.8551 -0.6931
12107WAT    EPW49136   1.540   5.891   4.740 -0.2690 -0.2003  0.1734
12108WAT      O49137   3.349   0.726   3.573 -1.1226 -0.0523  0.0490
12108WAT     H149138   3.399   0.751   3.506 -0.4998 -1.7385 -0.1576
12108WAT     H249139   3.404   0.727   3.641 -0.9075 -1.4769 -0.0925
12108WAT    EPW49140   3.365   0.730   3.573  0.2651 -1.0715 -1.0390
12109WAT      O49141   2.386   6.879   7.383  0.0472 -0.5101  0.6156
12109WAT     H149142   2.369   6.897   7.467 -2.5860  1.8567 -0.2717
12109WAT     H249143   2.473   6.869   7.381  0.1432 -1.2245  3.6608
12109WAT    EPW49144   2.396   6.880   7.395 -0.2020 -0.0728  0.1604
12110WAT      O49145   0.270   3.439   6.972  0.0762 -0.2758 -0.0514
12110WAT     H149146   0.332   3.457   7.030  1.7339 -2.6867 -0.9413
12110WAT     H249147   0.198   3.432   7.021  0.5192  1.9728  1.0712
12110WAT    EPW49148   0.268   3.441   6.988 -0.5331  0.5223 -0.5355
12111WAT      O49149   3.781   5.748   3.322 -0.1330 -1.4883 -0.0610
12111WAT     H149150   3.723   5.806   3.350  0.7294 -1.4304  1.7763
12111WAT     H249151   3.851   5.797   3.301  0.9245 -1.7976  2.3435
12111WAT    EPW49152   3.783   5.764   3.323  0.7471  0.2555 -0.1511
12112WAT      O49153   4.998   0.570   1.875 -0.1657 -0.5783 -0.1992
12112WAT     H149154   4.989   0.505   1.933 -1.0955 -0.1777  0.1264
12112WAT     H249155   4.977   0.532   1.799  3.1200 -1.6843 -0.6993
12112WAT    EPW49156   4.993   0.555   1.873 -0.1303 -0.8531 -0.5667
12113WAT      O49157   1.382   0.376   6.320  0.8444  0.1585  0.1547
12113WAT     H149158   1.453   0.327   6.331 -0.3063 -1.2999  1.6126
12113WAT     H249159   1.341   0.370   6.397 -0.6086  1.3655 -0.4805
12113WAT    EPW49160   1.386   0.368   6.333 -0.0354 -0.1830  0.0441
12114WAT      O49161   2.969   0.598   2.944  0.8716 -0.7481  0.1501
12114WAT     H149162   3.050   0.612   2.917  1.0069 -1.7795 -0.0449
12114WAT     H249163   2.931   0.559   2.876 -0.1579  0.7902 -0.2030
12114WAT    EPW49164   2.975   0.594   2.930  0.2958 -0.4950  0.3647
12115WAT      O49165   5.963   1.980   1.778 -0.2018 -0.2272  0.0990
12115WAT     H149166   5.975   1.922   1.843  0.4456 -0.3963 -0.1700
12115WAT     H249167   5.900   1.943   1.730 -1.2155  0.2357  1.0058
12115WAT    EPW49168   5.955   1.966   1.781  0.0959 -0.5621 -0.0119
12116WAT      O49169   6.774   1.135   3.088  0.0588 -0.3137  0.0467
12116WAT     H149170   6.716   1.070   3.095  2.0769 -2.2366  0.1256
12116WAT     H249171   6.761   1.183   3.160 -2.6711  0.5392 -0.8675
12116WAT    EPW49172   6.763   1.133   3.099 -0.3227  0.2544 -0.0601
12117WAT      O49173   7.562   6.146   3.379  0.0936 -0.7195 -0.5040
12117WAT     H149174   7.629   6.166   3.431 -1.6006  1.5273  1.0489
12117WAT     H249175   7.592   6.163   3.299  1.1272  1.1685  0.2253
12117WAT    EPW49176   7.576   6.152   3.375  0.0632  0.4269  0.2879
12118WAT      O49177   7.364   0.635   5.575 -0.1601  0.1425 -0.1309
12118WAT     H149178   7.341   0.697   5.633  0.7951 -0.7289  1.2453
12118WAT     H249179   7.425   0.674   5.526 -0.3884  0.6362 -0.0312
12118WAT    EPW49180   7.369   0.650   5.576  0.1290 -0.0735 -0.3710
12119WAT      O49181   3.841   2.651   0.570  0.6268  0.4569 -0.3406
12119WAT     H149182   3.807   2.718   0.525 -1.5290 -1.4591 -1.7780
12119WAT     H249183   3.803   2.658   0.648  1.4543  1.6014  0.0015
12119WAT    EPW49184   3.830   2.662   0.575 -0.3460  0.3905 -0.4462
12120WAT      O49185   4.686   0.452   0.993  0.1463  0.1075  0.0718
12120WAT     H149186   4.671   0.440   1.078  1.5798  0.9281  0.4716
12120WAT     H249187   4.741   0.520   0.991  0.0553  0.1801 -1.5203
12120WAT    EPW49188   4.692   0.460   1.005 -0.2717 -0.3383  0.1678
12121WAT      O49189   0.519   6.134   0.686  0.1151 -0.0495  0.3105
12121WAT     H149190   0.587   6.185   0.701  0.7632 -1.2154  1.5464
12121WAT     H249191   0.554   6.056   0.670 -0.8431 -0.1501 -1.5177
12121WAT    EPW49192   0.534   6.130   0.686 -0.5400 -0.0206 -0.4176
12122WAT      O49193   1.249   4.487   0.822  0.6047  0.2905  0.3840
12122WAT     H149194   1.197   4.464   0.755 -0.6289 -1.5574  1.8716
12122WAT     H249195   1.328   4.487   0.786 -0.2038  1.5518 -1.5804
12122WAT    EPW49196   1.253   4.483   0.807 -0.5358  0.2191  0.0847
12123WAT      O49197   4.425   4.531   4.692  0.6677  0.0061 -0.0803
12123WAT     H149198   4.351   4.573   4.712  0.9897 -0.5714  2.8082
12123WAT     H249199   4.408   4.493   4.615 -1.6382  0.7566 -0.0065
12123WAT    EPW49200   4.411   4.532   4.684  0.2867  0.2303 -0.1705
12124WAT      O49201   0.049   6.448   4.524 -0.1587 -0.3975  0.3673
12124WAT     H149202   0.038   6.528   4.558 -0.2258  0.0675 -0.7211
12124WAT     H249203  -0.014   6.401   4.563  0.0046  0.0242  1.1637
12124WAT    EPW49204   0.038   6.453   4.535 -0.1734  0.3786 -0.5473
12125WAT      O49205   4.231   6.900   7.351  0.0241 -0.7182 -0.0881
12125WAT     H149206   4.183   6.831   7.374 -0.7826  0.2612  1.3162
12125WAT     H249207   4.197   6.965   7.397  1.0919  0.5376 -0.9913
12125WAT    EPW49208   4.219   6.899   7.361  0.0679 -0.4888 -0.1897
12126WAT      O49209   0.165   3.436   5.430  0.2903  0.1735 -0.6175
12126WAT     H149210   0.119   3.472   5.366 -0.1654 -0.6032 -0.7387
12126WAT     H249211   0.107   3.424   5.494  0.2337 -1.0802 -0.8742
12126WAT    EPW49212   0.150   3.439   5.430  0.0239  0.3861 -0.6072
12127WAT      O49213   6.615   0.911   5.028  0.2605 -0.1045 -0.3954
12127WAT     H149214   6.661   0.940   5.097 -0.3544  1.2747 -0.5260
12127WAT     H249215   6.564   0.849   5.061 -0.9880  1.4320  0.7320
12127WAT    EPW49216   6.614   0.906   5.043  0.0464  0.8390 -0.4083
12128WAT      O49217   1.225   4.785   1.894 -0.1440  0.2156  0.2295
12128WAT     H149218   1.265   4.849   1.938 -1.1013  0.8679  0.1839
12128WAT     H249219   1.281   4.766   1.830 -0.0793  1.3960 -0.0864
12128WAT    EPW49220   1.239   4.792   1.891  0.7531  0.2234 -0.0703
12129WAT      O49221   0.109   4.937   3.805 -0.0540  0.0041 -0.3029
12129WAT     H149222   0.108   4.962   3.889  0.1771 -1.1652  0.0525
12129WAT     H249223   0.168   4.874   3.802 -0.2694 -0.1713 -1.2967
12129WAT    EPW49224   0.117   4.932   3.817 -0.0345  0.0173  0.0357
12130WAT      O49225   3.487   4.587   1.550  0.0671 -0.3485 -0.1546
12130WAT     H149226   3.551   4.635   1.586 -1.1847  1.3392 -0.0601
12130WAT     H249227   3.528   4.540   1.489  1.6170 -0.4404  0.8950
12130WAT    EPW49228   3.502   4.587   1.546 -0.3256  0.4523 -0.1322
12131WAT      O49229   6.534   6.686   7.578 -0.3248 -0.3174 -0.2693
12131WAT     H149230   6.522   6.757   7.529  0.1513 -0.1089 -0.0899
12131WAT     H249231   6.587   6.714   7.642 -1.0925 -0.5359  0.4780
12131WAT    EPW49232   6.540   6.701   7.580  0.0240 -0.0801 -0.0236
12132WAT      O49233   5.325   7.247   4.537 -0.0665  0.3589  0.1502
12132WAT     H149234   5.255   7.264   4.488  0.5042 -2.0014 -1.6508
12132WAT     H249235   5.303   7.174   4.579  0.7361  0.5116  0.8563
12132WAT    EPW49236   5.311   7.239   4.536  0.1158  0.0179 -0.3890
12133WAT      O49237   5.736   4.049   0.045  0.2024 -0.2114  0.1097
12133WAT     H149238   5.708   3.976   0.083  0.1015  1.0151  2.5686
12133WAT     H249239   5.698   4.112   0.092  1.1122  1.4375 -1.2775
12133WAT    EPW49240   5.726   4.048   0.057 -0.1756  0.3453 -0.3391
12134WAT      O49241   3.743   1.579   2.212 -0.0502 -1.1928  0.5184
12134WAT     H149242   3.800   1.589   2.277 -0.1870  2.5939  0.2376
12134WAT     H249243   3.787   1.534   2.152  1.6558 -0.7186  1.3725
12134WAT    EPW49244   3.758   1.574   2.213 -0.2015 -0.0090 -0.5293
12135WAT      O49245   3.519   0.283   5.905 -0.4707  0.7624  0.5032
12135WAT     H149246   3.474   0.238   5.965  1.7986 -2.4561  0.1059
12135WAT     H249247   3.470   0.278   5.834 -0.1820 -1.6561  0.3763
12135WAT    EPW49248   3.505   0.275   5.903  0.2057  0.3459  0.1333
12136WAT      O49249   5.175   6.453   6.824 -0.4124 -0.5380  0.3098
12136WAT     H149250   5.181   6.477   6.740 -1.3543 -0.7286  0.1700
12136WAT     H249251   5.258   6.447   6.850 -0.0760 -1.1562 -0.8114
12136WAT    EPW49252   5.188   6.456   6.815 -0.1952 -0.3647  0.0528
12137WAT      O49253   1.388   6.269   4.905  0.6018 -0.2361  0.5901
12137WAT     H149254   1.371   6.189   4.876  0.3075  0.4424 -1.2418
12137WAT     H249255   1.352   6.270   4.985 -1.3830 -1.2272 -0.2169
12137WAT    EPW49256   1.380   6.258   4.913 -0.3382  0.7778 -0.3397
12138WAT      O49257   2.209   5.546   0.436 -0.5305  0.9367  0.0843
12138WAT     H149258   2.241   5.512   0.509 -0.9766 -1.2160 -0.6474
12138WAT     H249259   2.274   5.596   0.406  0.8181 -0.5288  0.4438
12138WAT    EPW49260   2.223   5.548   0.442  0.1406 -0.2011 -0.1721
12139WAT      O49261   1.214   6.836   0.531 -0.0335  0.2988  0.0471
12139WAT     H149262   1.236   6.916   0.560  1.5875  0.1804 -0.7023
12139WAT     H249263   1.262   6.783   0.581 -1.8350 -0.3153  1.2055
12139WAT    EPW49264   1.225   6.840   0.543 -0.1801 -0.0033 -0.1302
12140WAT      O49265   5.624   7.488   5.045  0.2307 -0.6206  0.7338
12140WAT     H149266   5.697   7.466   5.086 -0.1545 -1.3413  1.0357
12140WAT     H249267   5.630   7.445   4.969  0.6020  0.1468  0.3094
12140WAT    EPW49268   5.636   7.479   5.040 -0.8546 -0.6633 -0.1976
12141WAT      O49269   0.140   7.451   7.487 -0.2059 -0.1179  0.2282
12141WAT     H149270   0.159   7.484   7.566  0.3951 -0.7854  0.3690
12141WAT     H249271   0.210   7.404   7.467 -0.8644 -0.9484 -0.1666
12141WAT    EPW49272   0.153   7.449   7.496  0.5236  0.3045  0.1654
12142WAT      O49273   6.622   1.546   5.164  0.3174 -0.2107 -0.0175
12142WAT     H149274   6.590   1.472   5.198 -0.2799 -0.8062 -1.7792
12142WAT     H249275   6.709   1.535   5.169  0.2327 -0.8474  0.1241
12142WAT    EPW49276   6.630   1.533   5.170  0.0789 -0.1356 -0.1597
12143WAT      O49277   2.908   1.864   6.540 -0.0417  0.5426  0.1982
12143WAT     H149278   2.991   1.837   6.537  0.0876  0.5116  2.4519
12143WAT     H249279   2.862   1.790   6.540 -0.1644  0.5695 -1.8638
12143WAT    EPW49280   2.913   1.849   6.539  0.4742  0.0327 -0.4978
12144WAT      O49281   3.038   0.595   5.896  0.1276 -0.6361 -0.0726
12144WAT     H149282   3.004   0.660   5.848  1.4075 -0.6684 -1.0865
12144WAT     H249283   2.982   0.588   5.963 -0.6995  0.6844 -0.5702
12144WAT    EPW49284   3.025   0.603   5.898  0.5476 -0.2249  0.4395
12145WAT      O49285   7.301   7.185   4.882 -0.2353  0.2531  0.0462
12145WAT     H149286   7.361   7.140   4.838 -1.0636 -0.8480 -0.0042
12145WAT     H249287   7.318   7.268   4.861 -0.5589 -0.2107 -2.3292
12145WAT    EPW49288   7.312   7.191   4.873 -0.0998 -0.3401  0.0234
12146WAT      O49289   3.131   6.431   4.015  0.0450 -0.0251  0.2116
12146WAT     H149290   3.046   6.435   3.993  0.2183  0.2951 -0.4436
12146WAT     H249291   3.158   6.357   3.977  1.0015  1.8805 -3.2407
12146WAT    EPW49292   3.122   6.421   4.006  0.4438 -0.1294  0.5362
12147WAT      O49293   5.255   4.230   0.547 -0.6438 -0.2487 -0.1718
12147WAT     H149294   5.273   4.180   0.478 -2.1040 -1.5450  0.3306
12147WAT     H249295   5.297   4.190   0.612  3.0142  2.4144 -0.5453
12147WAT    EPW49296   5.264   4.217   0.546  0.0197 -0.4193 -0.2425
12148WAT      O49297   4.853   4.411   7.531  0.5070 -0.0938  0.2494
12148WAT     H149298   4.868   4.439   7.450  0.2839 -1.5240 -0.3139
12148WAT     H249299   4.872   4.480   7.580  0.8825  0.7278 -0.9985
12148WAT    EPW49300   4.858   4.425   7.526 -0.3726  0.6445 -0.1002
12149WAT      O49301   1.494   0.862   1.119  0.4564  0.2066  0.1705
12149WAT     H149302   1.439   0.906   1.067 -0.0102  0.2891  0.7225
12149WAT     H249303   1.531   0.804   1.065  0.3125  0.5845 -0.3469
12149WAT    EPW49304   1.492   0.860   1.103 -0.8889 -0.4817  0.3659
12150WAT      O49305   6.459   2.837   3.393  0.1208 -0.3562 -0.0811
12150WAT     H149306   6.391   2.835   3.447  0.8499  0.0665  0.8743
12150WAT     H249307   6.459   2.758   3.356 -1.0693 -0.2550 -0.3324
12150WAT    EPW49308   6.449   2.825   3.395 -1.1259  0.3381 -0.1365
12151WAT      O49309   0.693   0.737   2.413  0.2090 -0.0504  0.9443
12151WAT     H149310   0.719   0.808   2.370 -0.6061 -0.4387 -0.2275
12151WAT     H249311   0.616   0.761   2.448 -0.9100 -0.8373 -0.8619
12151WAT    EPW49312   0.685   0.751   2.412 -0.0601  0.3274  0.0629
12152WAT      O49313   6.005   3.194   7.116  0.1109 -0.6055 -0.2272
12152WAT     H149314   6.077   3.155   7.147 -0.4312 -0.8657  0.7235
12152WAT     H249315   6.029   3.218   7.035  1.7052  0.5350  0.5372
12152WAT    EPW49316   6.019   3.191   7.108  0.2143 -0.0975  0.1490
12153WAT      O49317   7.301   0.607   7.555 -0.7288  0.2723  0.0282
12153WAT     H149318   7.230   0.559   7.540 -0.8297 -0.0745  1.5343
12153WAT     H249319   7.281   0.684   7.520 -1.1043 -0.3543 -1.1936
12153WAT    EPW49320   7.288   0.611   7.547 -0.0969 -0.0107  0.0822
12154WAT      O49321   0.551   2.104   5.407 -0.8217  0.2907  0.1946
12154WAT     H149322   0.596   2.043   5.451 -2.5317 -1.8653 -0.8742
12154WAT     H249323   0.566   2.177   5.453  2.4899 -0.5429  0.7436
12154WAT    EPW49324   0.560   2.105   5.420 -0.1266  0.4902  0.1155
12155WAT      O49325   6.624   2.614   2.989 -0.0855  0.2384  0.4695
12155WAT     H149326   6.654   2.535   2.966  0.0143  0.4708 -0.2462
12155WAT     H249327   6.697   2.663   2.992  0.0462 -0.0041  2.3468
12155WAT    EPW49328   6.639   2.610   2.986  0.0359 -0.5393  0.1564
12156WAT      O49329   1.108   5.554   4.366 -0.1798 -0.2139  0.6654
12156WAT     H149330   1.081   5.473   4.381  2.8206 -1.5104 -0.1676
12156WAT     H249331   1.041   5.591   4.324 -2.0985 -1.8032  2.1401
12156WAT    EPW49332   1.094   5.548   4.362 -0.2199  0.1067 -0.0160
12157WAT      O49333   6.362   7.488   0.116  0.2448 -0.2504 -0.1355
12157WAT     H149334   6.388   7.560   0.075  0.3712  0.2388  0.7822
12157WAT     H249335   6.326   7.440   0.053 -0.2332  0.7977 -0.6854
12157WAT    EPW49336   6.361   7.492   0.101 -0.0202  0.4950  0.2197
12158WAT      O49337   3.947   4.390   6.137  0.1558 -0.5913 -0.3962
12158WAT     H149338   3.977   4.441   6.202 -2.4350 -0.3961  0.7591
12158WAT     H249339   3.898   4.444   6.090  1.0083 -1.0352 -1.8453
12158WAT    EPW49340   3.944   4.405   6.140 -0.0126 -0.2007  0.1163
12159WAT      O49341   2.841   1.426   2.998  0.1225  0.4121  0.2883
12159WAT     H149342   2.801   1.397   2.926  1.4749 -1.0844  0.0774
12159WAT     H249343   2.783   1.413   3.061 -0.5975  0.5152 -0.3351
12159WAT    EPW49344   2.827   1.420   2.996 -0.4785  0.1026 -0.9078
12160WAT      O49345   3.528   4.970   2.074  0.2392 -0.0226 -0.3944
12160WAT     H149346   3.502   4.954   1.992  0.9214  0.5598 -0.7350
12160WAT     H249347   3.610   4.998   2.064  0.9574 -1.6463  0.6390
12160WAT    EPW49348   3.536   4.972   2.060 -0.3448  0.4312  0.1043
12161WAT      O49349   5.963   4.749   6.309 -1.1813  0.0726 -0.0591
12161WAT     H149350   6.050   4.739   6.318 -1.4124 -3.3249 -0.1362
12161WAT     H249351   5.955   4.801   6.241  0.7526  1.9982  1.0562
12161WAT    EPW49352   5.975   4.755   6.301 -1.0764  0.1840 -0.6135
12162WAT      O49353   5.824   0.536   5.405  0.3883 -0.4684  0.5920
12162WAT     H149354   5.839   0.452   5.387 -0.3298 -0.6522  0.8226
12162WAT     H249355   5.746   0.535   5.443  1.1050  0.0891  2.1955
12162WAT    EPW49356   5.815   0.523   5.408 -0.0274 -0.6538 -0.5479
12163WAT      O49357   0.418   2.629   1.062  0.1362 -0.6398  0.1417
12163WAT     H149358   0.364   2.658   1.000 -1.1788 -1.9495  0.6164
12163WAT     H249359   0.402   2.681   1.130  0.0163 -0.5699  0.0589
12163WAT    EPW49360   0.408   2.641   1.063 -0.0207 -0.0868 -0.0304
12164WAT      O49361   4.291   0.704   5.788  0.3903  0.3912  0.2561
12164WAT     H149362   4.239   0.754   5.738  2.0478  1.2998 -0.6326
12164WAT     H249363   4.369   0.709   5.749  0.5446 -3.6292 -0.4541
12164WAT    EPW49364   4.295   0.712   5.775 -0.3580  0.0391  0.4414
12165WAT      O49365   5.076   3.936   4.860 -0.0566  0.1617 -0.2569
12165WAT     H149366   5.013   3.893   4.819  1.1056 -0.1285 -1.8361
12165WAT     H249367   5.109   3.877   4.915 -0.9387  0.2322  0.3703
12165WAT    EPW49368   5.072   3.921   4.862  0.0349 -0.0547  0.2011
12166WAT      O49369   5.180  -0.014   2.485 -0.4985 -0.1404 -0.3793
12166WAT     H149370   5.121   0.022   2.432  0.0588  0.6096 -0.5004
12166WAT     H249371   5.253   0.032   2.469 -0.5096  0.6542  1.6283
12166WAT    EPW49372   5.182  -0.002   2.475 -0.0164  0.4631  0.2161
12167WAT      O49373   0.936   5.181   6.010 -0.1499 -0.1037 -0.0410
12167WAT     H149374   0.912   5.252   5.966 -0.0348  0.9979  1.5663
12167WAT     H249375   0.866   5.162   6.058  0.9868  1.2194  2.2960
12167WAT    EPW49376   0.922   5.188   6.011  0.2014  0.4152 -0.0017
12168WAT      O49377   5.109   2.778   6.367 -0.5434  0.0845 -0.1102
12168WAT     H149378   5.048   2.752   6.310 -0.7622  0.1290  0.0993
12168WAT     H249379   5.062   2.817   6.430 -0.3763 -0.6327  0.4742
12168WAT    EPW49380   5.093   2.780   6.368 -0.3025 -0.0863 -0.2495
12169WAT      O49381   6.156   2.382   7.249  0.0395  0.0600  0.1536
12169WAT     H149382   6.077   2.344   7.243 -0.5244  1.4214 -1.9681
12169WAT     H249383   6.168   2.388   7.335 -3.0333  1.4630  0.6408
12169WAT    EPW49384   6.146   2.377   7.261 -0.0039 -0.6417 -0.1767
12170WAT      O49385   1.484   4.658   5.265  0.0043 -0.5614 -0.0676
12170WAT     H149386   1.477   4.743   5.281  0.7980 -0.4220 -0.4481
12170WAT     H249387   1.570   4.644   5.263 -0.0928 -1.0952 -1.4203
12170WAT    EPW49388   1.496   4.668   5.267 -0.5374  0.0306  0.0196
12171WAT      O49389   7.372   0.833   2.871  0.0334  0.4324 -0.4059
12171WAT     H149390   7.312   0.895   2.855 -0.6957  0.3505  1.6128
12171WAT     H249391   7.417   0.865   2.938 -1.2271 -1.6714  1.6190
12171WAT    EPW49392   7.370   0.847   2.879  0.0199  0.5789 -0.3686
12172WAT      O49393   0.950   0.378   5.066 -0.2539 -0.0708  0.2901
12172WAT     H149394   0.996   0.368   4.993 -1.9570  0.1923 -0.8760
12172WAT     H249395   0.918   0.299   5.082 -0.4223  0.0129  0.3751
12172WAT    EPW49396   0.952   0.365   5.058  0.1948  0.4372  0.4457
12173WAT      O49397   6.551   3.515   0.915  0.1220  0.2988  0.3395
12173WAT     H149398   6.557   3.447   0.969  0.7323 -0.1076 -0.2319
12173WAT     H249399   6.548   3.584   0.968  3.6559  0.1626  0.9217
12173WAT    EPW49400   6.551   3.515   0.931 -0.3099 -0.1661 -0.0438
12174WAT      O49401   6.737   4.331   5.214 -0.4925 -0.1011 -0.2264
12174WAT     H149402   6.684   4.301   5.277 -1.2229  1.2592 -0.1663
12174WAT     H249403   6.719   4.279   5.146 -2.9158  1.1039 -0.6221
12174WAT    EPW49404   6.727   4.319   5.213 -0.2121 -0.1734  0.3616
12175WAT      O49405   1.143   3.559   3.518  0.2437 -0.2071  0.0028
12175WAT     H149406   1.199   3.492   3.514 -1.0480 -1.4498  1.3935
12175WAT     H249407   1.109   3.552   3.598 -2.1648  0.2416 -0.9052
12175WAT    EPW49408   1.147   3.548   3.529 -0.1612 -0.1905 -0.2227
12176WAT      O49409   3.132   4.843   3.372 -0.7170 -0.0376  0.3599
12176WAT     H149410   3.068   4.786   3.384 -0.6650 -0.3024 -0.5452
12176WAT     H249411   3.201   4.793   3.351 -0.2041  0.2376  1.3364
12176WAT    EPW49412   3.133   4.827   3.370 -0.0832  0.1230 -0.0485
12177WAT      O49413   1.389   7.154   6.477  0.0405  0.3970 -0.6171
12177WAT     H149414   1.411   7.159   6.393  0.4180  1.5284 -0.4630
12177WAT     H249415   1.408   7.071   6.498  0.5451  0.2830 -1.4765
12177WAT    EPW49416   1.395   7.142   6.468 -0.2633 -0.2226  0.1065
12178WAT      O49417   0.804   3.131   3.561 -0.4336  0.4038  0.5054
12178WAT     H149418   0.852   3.085   3.617  3.0447  1.9446 -0.9592
12178WAT     H249419   0.772   3.070   3.506  0.9921 -0.6028  0.7519
12178WAT    EPW49420   0.806   3.115   3.561 -0.2637  0.4550  0.2830
12179WAT      O49421   2.193   6.300   2.124  0.4896 -0.1416  0.0673
12179WAT     H149422   2.204   6.373   2.078  2.9840 -1.0264 -0.9557
12179WAT     H249423   2.148   6.249   2.070  0.5288 -0.0458 -0.0578
12179WAT    EPW49424   2.188   6.303   2.109 -0.3088 -0.8764  0.0642
12180WAT      O49425   5.586   0.142   6.752  0.2498 -0.2688 -0.5523
12180WAT     H149426   5.529   0.148   6.686  0.3633 -0.2954 -0.6528
12180WAT     H249427   5.549   0.084   6.805  0.5679 -0.9041 -1.0102
12180WAT    EPW49428   5.572   0.134   6.750 -0.1319  0.3900  0.2879
12181WAT      O49429   2.814   2.871   3.077 -0.0743  0.3645 -0.0050
12181WAT     H149430   2.807   2.801   3.127 -0.5542  0.1542 -0.3503
12181WAT     H249431   2.900   2.885   3.071  0.0639 -0.6132 -0.5021
12181WAT    EPW49432   2.826   2.863   3.083  0.8671 -0.4284  0.2117
12182WAT      O49433   4.546   3.596   3.617  0.4185 -0.5894  0.5800
12182WAT     H149434   4.572   3.548   3.549  2.1630 -2.1207  2.2236
12182WAT     H249435   4.587   3.672   3.606  1.2485 -1.0726  0.2717
12182WAT    EPW49436   4.556   3.600   3.606  0.1262 -0.2910  0.0438
12183WAT      O49437   0.447   2.947   4.799 -0.4458 -0.6290  0.0337
12183WAT     H149438   0.422   2.965   4.718 -0.2835 -0.0364  0.1137
12183WAT     H249439   0.516   2.998   4.812 -0.6942 -0.4366  0.6731
12183WAT    EPW49440   0.453   2.957   4.789  0.2124  0.4562  0.5863
12184WAT      O49441   2.038   7.242   2.814 -0.6698  0.2519  0.3254
12184WAT     H149442   2.027   7.275   2.894 -1.3247  0.4753  0.1530
12184WAT     H249443   1.971   7.187   2.805 -0.9772  0.7139 -0.3117
12184WAT    EPW49444   2.026   7.239   2.824  0.2411  0.6260  0.4517
12185WAT      O49445   4.104   1.549   6.574 -0.6525  0.4442 -0.2905
12185WAT     H149446   4.080   1.541   6.491  0.7389  0.3153 -0.7100
12185WAT     H249447   4.163   1.486   6.585  0.0954  1.2246  0.4314
12185WAT    EPW49448   4.109   1.539   6.564  0.3161 -0.3063 -0.5967
12186WAT      O49449   3.423   6.212   1.982 -0.1971 -0.0580  0.2783
12186WAT     H149450   3.498   6.226   2.025  0.5883  2.0765 -1.5613
12186WAT     H249451   3.380   6.288   1.991  0.4274  0.8967 -3.2507
12186WAT    EPW49452   3.428   6.225   1.990 -0.4533  0.4791  0.0891
12187WAT      O49453   2.440   1.778   6.916  0.9323 -0.2477 -0.2788
12187WAT     H149454   2.432   1.691   6.918 -0.0346 -0.1560  0.5762
12187WAT     H249455   2.386   1.803   6.852 -0.1373 -0.1785  0.6085
12187WAT    EPW49456   2.431   1.769   6.907  0.1244  0.0653 -0.1793
12188WAT      O49457   5.216   5.436   1.036 -0.2350 -0.0968 -0.5801
12188WAT     H149458   5.207   5.366   1.088  0.8260 -1.6532 -2.3739
12188WAT     H249459   5.224   5.502   1.093 -0.5649 -1.4990  1.2079
12188WAT    EPW49460   5.216   5.435   1.052  0.7370  0.1063 -0.1550
12189WAT      O49461   3.256   4.506   6.652  0.1843 -0.3337 -0.7642
12189WAT     H149462   3.210   4.575   6.627 -1.6420 -1.2727 -0.1474
12189WAT     H249463   3.291   4.532   6.728  2.3344  1.0352 -2.0974
12189WAT    EPW49464   3.254   4.520   6.660 -0.2293  0.2603 -0.2776
12190WAT      O49465   4.917   0.199   3.758  0.4384  0.2199 -0.3224
12190WAT     H149466   4.975   0.212   3.694  0.9580  0.8866  0.2515
12190WAT     H249467   4.864   0.268   3.751 -1.7793 -1.5353 -2.3116
12190WAT    EPW49468   4.918   0.211   3.747 -0.1085 -0.0824 -0.4255
12191WAT      O49469   1.205   7.004   7.256  0.1469  0.1544 -0.4364
12191WAT     H149470   1.255   7.073   7.234  1.3663  0.5230  2.8522
12191WAT     H249471   1.125   7.038   7.261  0.4280  0.8927 -0.6975
12191WAT    EPW49472   1.201   7.019   7.254 -0.2323 -0.5260  0.3846
12192WAT      O49473   6.329   4.262   2.226 -0.3726 -0.1527 -0.3651
12192WAT     H149474   6.314   4.303   2.302  1.5334 -0.3231  0.1501
12192WAT     H249475   6.404   4.298   2.198 -0.7160 -0.5403 -1.8651
12192WAT    EPW49476   6.338   4.273   2.233 -0.0740 -0.4723 -0.1261
12193WAT      O49477   0.055   2.696   5.946 -0.6299 -0.6414 -0.1803
12193WAT     H149478   0.033   2.612   5.956 -0.6905 -1.0432 -2.9956
12193WAT     H249479  -0.019   2.733   5.916 -0.5383  0.4106  0.8039
12193WAT    EPW49480   0.041   2.689   5.943 -0.3458  0.0675 -0.4813
12194WAT      O49481   0.578   5.139   1.507 -0.0430 -0.2200  0.2445
12194WAT     H149482   0.551   5.221   1.506  2.0737  0.5377  0.5334
12194WAT     H249483   0.652   5.141   1.461 -0.0213 -1.9945  0.1318
12194WAT    EPW49484   0.585   5.151   1.501  0.2828 -0.3643  0.0326
12195WAT      O49485   6.190   7.219   1.969 -0.0529  0.4172 -0.2547
12195WAT     H149486   6.222   7.257   1.897 -1.4899  4.1814  0.8560
12195WAT     H249487   6.234   7.257   2.034 -0.5290 -1.0596  0.9966
12195WAT    EPW49488   6.201   7.230   1.968  0.9427  0.3912  0.4561
12196WAT      O49489   4.070   2.284   4.914 -0.1638  0.0571  0.1511
12196WAT     H149490   4.155   2.273   4.930  0.0835 -0.2255 -1.2173
12196WAT     H249491   4.056   2.233   4.845 -1.2035  0.9456 -0.3155
12196WAT    EPW49492   4.081   2.275   4.906 -0.5131  0.1531 -0.3951
12197WAT      O49493   0.916   5.778   1.968  0.1034  0.0318  0.1400
12197WAT     H149494   0.994   5.816   1.961  0.1930 -0.3004 -0.7060
12197WAT     H249495   0.878   5.822   2.033  0.9381  0.2894  0.4668
12197WAT    EPW49496   0.922   5.790   1.977  0.2365  0.3953  0.4589
12198WAT      O49497   5.365   4.578   3.590 -0.3598  0.3820 -0.1140
12198WAT     H149498   5.436   4.621   3.617  0.3578 -0.8018 -0.0182
12198WAT     H249499   5.353   4.606   3.509 -0.6167  1.6014  0.3205
12198WAT    EPW49500   5.373   4.588   3.582  0.1321 -0.0031  0.2178
12199WAT      O49501   4.810   1.717   0.889 -0.4256 -0.3626 -0.3230
12199WAT     H149502   4.890   1.710   0.925 -0.2997  4.2201  0.8834
12199WAT     H249503   4.826   1.703   0.804  1.6992  0.2786 -0.1100
12199WAT    EPW49504   4.824   1.714   0.881 -0.7486  0.8482 -0.9707
12200WAT      O49505   5.511   4.613   3.213 -0.1417 -0.1302  0.2829
12200WAT     H149506   5.566   4.651   3.157  0.6689 -0.3728  0.8864
12200WAT     H249507   5.484   4.542   3.172  0.6688 -0.4572  0.2966
12200WAT    EPW49508   5.515   4.608   3.199 -0.4051  0.5755 -0.1286
12201WAT      O49509   0.846   5.618   5.039 -0.9793  0.2266 -0.2738
12201WAT     H149510   0.795   5.658   5.097  1.3131  0.0964  2.0056
12201WAT     H249511   0.883   5.684   4.995 -0.7057  0.4346  0.2662
12201WAT    EPW49512   0.844   5.634   5.041 -0.0334  0.4506 -0.0452
12202WAT      O49513   0.987   7.402   2.123  0.0647  0.1599  0.3723
12202WAT     H149514   0.998   7.350   2.192  0.6266  0.5481  0.5855
12202WAT     H249515   0.905   7.430   2.131  0.0786  0.0812  0.7960
12202WAT    EPW49516   0.977   7.398   2.134 -0.0386 -0.5333 -0.1002
12203WAT      O49517   5.303   4.855   2.897  0.1648 -0.2574 -0.7723
12203WAT     H149518   5.272   4.923   2.853 -1.5554  0.1458  0.9025
12203WAT     H249519   5.241   4.794   2.888  0.9349 -1.0420 -0.9366
12203WAT    EPW49520   5.289   4.856   2.889  0.3153 -0.1337  0.0469
12204WAT      O49521   1.223   1.226   4.985 -0.5641  0.0497  0.0546
12204WAT     H149522   1.240   1.209   4.901 -1.5070  0.3535 -0.2039
12204WAT     H249523   1.246   1.153   5.026  0.4155  0.0861 -0.3879
12204WAT    EPW49524   1.229   1.213   4.979 -0.3453  0.6007 -0.9312
12205WAT      O49525   6.393   7.162   1.199 -0.4586 -0.2507  0.6874
12205WAT     H149526   6.310   7.181   1.180  0.7021  1.2637 -4.4977
12205WAT     H249527   6.398   7.076   1.183 -0.8584 -0.1650  0.0435
12205WAT    EPW49528   6.381   7.152   1.194 -0.4722 -0.6267  0.4919
12206WAT      O49529   2.109   5.110   4.821  0.0247 -0.0538 -0.1788
12206WAT     H149530   2.154   5.036   4.829  0.1950  0.1572  1.0701
12206WAT     H249531   2.026   5.085   4.827 -0.1647 -0.5316 -3.1516
12206WAT    EPW49532   2.103   5.095   4.823 -0.7408 -1.0143  0.7151
12207WAT      O49533   1.276   5.723   0.132  0.0488 -0.2496  0.6024
12207WAT     H149534   1.203   5.758   0.163 -0.4843  0.0918 -0.9249
12207WAT     H249535   1.300   5.779   0.069 -0.4208 -2.1704 -1.4056
12207WAT    EPW49536   1.269   5.736   0.127  0.2895  0.2504 -0.1538
12208WAT      O49537   3.924   2.665   1.368 -0.0783 -0.3115  0.1246
12208WAT     H149538   4.006   2.647   1.391 -0.1424  0.4406  1.0208
12208WAT     H249539   3.876   2.626   1.429 -0.2272  2.3620  1.9087
12208WAT    EPW49540   3.929   2.657   1.380 -0.2003 -0.2564 -0.1054
12209WAT      O49541   0.827   2.064   7.482 -0.4514  0.0669  0.6267
12209WAT     H149542   0.759   2.070   7.428 -0.2527 -0.6263  0.2785
12209WAT     H249543   0.820   2.134   7.532 -1.1196  0.2849  0.2434
12209WAT    EPW49544   0.816   2.075   7.481  0.1336  0.3268  0.6380
12210WAT      O49545   7.152   3.718   0.636 -0.4282 -0.0260  0.1160
12210WAT     H149546   7.072   3.702   0.605  0.2141  0.8860 -2.2211
12210WAT     H249547   7.165   3.802   0.618  1.5584 -0.4897 -0.8708
12210WAT    EPW49548   7.142   3.728   0.629 -0.1288  0.4932  0.1972
12211WAT      O49549   1.854   4.048   4.069 -0.2335  0.5032  0.1896
12211WAT     H149550   1.855   4.116   4.124 -1.0897  1.4282 -0.8769
12211WAT     H249551   1.776   4.011   4.084  0.1113 -0.0865  0.5656
12211WAT    EPW49552   1.842   4.052   4.079  0.2641  0.0119 -0.3452
12212WAT      O49553   3.856   5.547   2.170  0.2763  0.2334 -0.2049
12212WAT     H149554   3.914   5.489   2.202 -0.7065 -0.3065  0.6891
12212WAT     H249555   3.902   5.621   2.164  0.4874  0.5615  3.1060
12212WAT    EPW49556   3.872   5.549   2.174  0.5068  0.4160 -0.1012
12213WAT      O49557   4.863   0.976   2.918 -0.6481  0.2910  0.0672
12213WAT     H149558   4.808   0.942   2.977 -0.3603  0.5446  0.4780
12213WAT     H249559   4.812   1.029   2.871 -1.2394 -1.0929 -0.9422
12213WAT    EPW49560   4.847   0.979   2.920  0.6883  0.4713 -0.8015
12214WAT      O49561   7.260   0.093   6.595 -0.2457  0.2905  0.1062
12214WAT     H149562   7.236   0.136   6.667  1.6469 -1.0446  1.6328
12214WAT     H249563   7.206   0.025   6.593 -0.0286  0.1005  0.5383
12214WAT    EPW49564   7.249   0.089   6.606  0.3147  0.1643 -0.6257
12215WAT      O49565   4.969   6.850   5.924 -0.0510 -0.7517 -0.3031
12215WAT     H149566   5.018   6.920   5.943  0.1817  0.0638 -3.3585
12215WAT     H249567   4.889   6.874   5.950  0.6943 -1.2905  2.8668
12215WAT    EPW49568   4.964   6.864   5.930 -0.2538  0.0043  0.0172
12216WAT      O49569   1.482   2.211   2.507 -0.3597 -0.0088 -0.5793
12216WAT     H149570   1.548   2.177   2.460  0.0439 -1.7549  1.1057
12216WAT     H249571   1.523   2.256   2.570 -0.7721 -0.3159 -0.0765
12216WAT    EPW49572   1.498   2.213   2.509  0.3381  0.0422 -0.5295
12217WAT      O49573   0.070   2.112   1.450  0.3493 -0.0965 -0.1664
12217WAT     H149574  -0.011   2.082   1.460  0.9880 -1.8435  0.0051
12217WAT     H249575   0.082   2.162   1.520 -1.9333  3.6527 -2.0795
12217WAT    EPW49576   0.060   2.115   1.462  0.2702  0.4797 -0.0812
12218WAT      O49577   0.970   7.191   7.072  0.3558  0.2044 -0.4645
12218WAT     H149578   0.928   7.220   7.142 -0.4881  0.3001 -0.9886
12218WAT     H249579   1.002   7.263   7.035  1.7353  0.0472  0.3940
12218WAT    EPW49580   0.968   7.206   7.077  0.8535  0.6203 -0.3132
12219WAT      O49581   5.512   6.712   1.850  0.0562  0.2734 -0.0903
12219WAT     H149582   5.564   6.690   1.783 -0.9490 -0.2666 -0.7240
12219WAT     H249583   5.475   6.636   1.873 -0.1147  0.5742  0.6473
12219WAT    EPW49584   5.514   6.697   1.843  0.1195 -0.0600  0.8700
12220WAT      O49585   0.374   2.878   7.240  0.2627 -0.5213  0.1693
12220WAT     H149586   0.323   2.835   7.183  0.5452 -1.3570  0.5225
12220WAT     H249587   0.384   2.957   7.204 -0.5244 -0.6534 -0.3527
12220WAT    EPW49588   0.368   2.883   7.226 -0.6411  0.2088 -0.5889
12221WAT      O49589   3.838   0.960   7.565 -0.3388  0.1799 -0.2664
12221WAT     H149590   3.787   0.890   7.560 -1.3565  0.9632 -1.5926
12221WAT     H249591   3.832   0.984   7.649 -2.7866  0.6599 -0.5136
12221WAT    EPW49592   3.830   0.954   7.576  0.2193  0.5095  0.1928
12222WAT      O49593   1.421   6.755   4.870  0.7142  0.2371  0.3665
12222WAT     H149594   1.448   6.682   4.831 -0.4274  0.1460 -0.2952
12222WAT     H249595   1.414   6.732   4.954  1.0155 -0.2188  0.2707
12222WAT    EPW49596   1.424   6.741   4.876  0.0106  0.7443 -0.0115
12223WAT      O49597   0.406   0.056   1.113 -0.2614  0.0430 -0.0756
12223WAT     H149598   0.400  -0.001   1.047  0.1120  1.2810 -1.2238
12223WAT     H249599   0.334   0.105   1.104 -1.4530 -1.1849  1.8952
12223WAT    EPW49600   0.394   0.055   1.102 -0.2241 -0.4298 -0.4647
12224WAT      O49601   6.547   3.394   6.294  0.0190 -0.2112  0.3962
12224WAT     H149602   6.547   3.323   6.344  0.9463 -0.1752  0.4691
12224WAT     H249603   6.509   3.367   6.220  0.8325 -0.9410  0.2263
12224WAT    EPW49604   6.542   3.380   6.291  0.2154  0.6030 -0.2738
12225WAT      O49605   1.236   6.092   0.426  0.3887  0.0414 -0.2320
12225WAT     H149606   1.218   6.166   0.468  0.3901  0.2269 -0.5536
12225WAT     H249607   1.209   6.030   0.481  0.1492  0.2867 -0.0708
12225WAT    EPW49608   1.229   6.094   0.440 -0.2843 -0.3355  0.0013
12226WAT      O49609   5.882   6.419   2.927 -0.4032  0.1396 -0.0087
12226WAT     H149610   5.890   6.353   2.984 -0.9820 -1.2960 -1.5138
12226WAT     H249611   5.956   6.416   2.882  1.2651  2.9535  2.2194
12226WAT    EPW49612   5.894   6.409   2.929 -0.0712 -0.2428  1.0961
12227WAT      O49613   7.081   4.946   6.079  0.2910  0.3780 -0.8369
12227WAT     H149614   7.105   4.867   6.053  1.5333 -0.6621  2.8430
12227WAT     H249615   6.998   4.935   6.105  0.1515  0.5581 -1.1935
12227WAT    EPW49616   7.072   4.933   6.079  0.1981 -0.4470  0.1510
12228WAT      O49617   7.251   6.707   1.942  0.0238 -0.6207  0.3748
12228WAT     H149618   7.218   6.735   2.017  0.9610 -0.3000  0.6848
12228WAT     H249619   7.316   6.653   1.967  2.9553  2.3833 -0.0262
12228WAT    EPW49620   7.256   6.703   1.957 -0.1394  0.1366  0.1812
12229WAT      O49621   1.148   4.321   5.770  0.5218  0.4470 -0.3798
12229WAT     H149622   1.147   4.323   5.683 -0.5053  1.6332 -0.3689
12229WAT     H249623   1.128   4.403   5.793 -0.8598 -0.2108  0.9585
12229WAT    EPW49624   1.145   4.333   5.761 -0.4049  0.5775 -0.2240
12230WAT      O49625   2.868   2.005   7.413  0.5422  0.1882 -0.3743
12230WAT     H149626   2.798   2.044   7.446  1.9430  0.8458  2.0741
12230WAT     H249627   2.920   2.071   7.392  1.7426 -0.2569  1.0222
12230WAT    EPW49628   2.865   2.020   7.415 -0.1689  0.2694 -0.4348
12231WAT      O49629   4.983   0.041   6.888  0.0723 -0.2239  0.1994
12231WAT     H149630   4.914   0.011   6.842  0.3635 -0.5092 -0.0564
12231WAT     H249631   5.042  -0.022   6.880  0.8547  0.5837 -0.6878
12231WAT    EPW49632   4.981   0.027   6.880 -0.1734 -0.0303 -0.1924
12232WAT      O49633   0.804   3.895   6.482  0.5290  0.1522 -0.2996
12232WAT     H149634   0.819   3.833   6.422 -0.0494 -0.3756  0.0839
12232WAT     H249635   0.759   3.956   6.438  0.9729  0.2387 -0.6438
12232WAT    EPW49636   0.800   3.895   6.467 -0.2275  0.3726  0.2286
12233WAT      O49637   1.576   6.250   1.630 -0.3248 -1.0436 -0.0441
12233WAT     H149638   1.545   6.312   1.577 -0.5930 -1.5055 -0.4383
12233WAT     H249639   1.623   6.295   1.689 -0.6386 -0.4601 -0.2308
12233WAT    EPW49640   1.579   6.266   1.631  0.0031 -0.1414  0.0770
12234WAT      O49641   7.628   4.363   3.668 -0.0754  0.1627  0.2824
12234WAT     H149642   7.629   4.276   3.675 -2.7591  0.1746  2.0197
12234WAT     H249643   7.660   4.391   3.744 -0.7702  0.6585  0.4037
12234WAT    EPW49644   7.633   4.354   3.680 -0.1618 -0.4279 -0.2785
12235WAT      O49645   6.696   6.739   6.833 -0.0339 -0.2244  0.2947
12235WAT     H149646   6.648   6.705   6.897 -0.0020 -0.4453  0.2026
12235WAT     H249647   6.639   6.746   6.767 -0.2471  0.6714  0.5592
12235WAT    EPW49648   6.680   6.735   6.833  0.4142 -0.4421 -0.0826
12236WAT      O49649   1.030   0.555   5.788  0.6122  0.2739  0.2530
12236WAT     H149650   0.971   0.564   5.851  0.0042 -1.5352  0.0202
12236WAT     H249651   1.091   0.504   5.824  1.0849  0.5830 -0.1030
12236WAT    EPW49652   1.030   0.549   5.802 -1.0524 -0.3234  0.6339
12237WAT      O49653   7.481   7.572   6.471 -0.2036 -0.1936 -0.0131
12237WAT     H149654   7.421   7.622   6.510 -0.0743 -0.8143  0.9920
12237WAT     H249655   7.540   7.557   6.534 -0.7396 -2.4578  0.0332
12237WAT    EPW49656   7.481   7.577   6.486  0.5059 -0.1150 -0.4089
12238WAT      O49657   3.294   2.802   2.360  0.1146  0.3029  0.3811
12238WAT     H149658   3.272   2.868   2.308  0.9917 -1.0983 -1.9242
12238WAT     H249659   3.380   2.796   2.352  0.0607 -1.0955  0.5271
12238WAT    EPW49660   3.303   2.811   2.351 -0.3623 -0.3457  0.2087
12239WAT      O49661   0.223   2.364   7.318 -0.1028  0.2012  0.1095
12239WAT     H149662   0.162   2.412   7.356  0.0095  0.5085 -0.0964
12239WAT     H249663   0.240   2.407   7.244  0.8157  0.4716  0.4609
12239WAT    EPW49664   0.217   2.377   7.313 -0.5230  0.3356 -0.1244
12240WAT      O49665   0.949   0.592   0.395 -0.5868 -0.3205 -0.3940
12240WAT     H149666   1.002   0.606   0.463 -1.3537  1.4010 -0.1146
12240WAT     H249667   0.909   0.517   0.417  0.1950 -0.5377  0.3722
12240WAT    EPW49668   0.951   0.583   0.408  0.1032  0.0205 -0.2677
12241WAT      O49669   4.510   6.489   5.060 -0.1986  0.7331  0.1374
12241WAT     H149670   4.553   6.548   5.107  0.1734 -1.1413  2.3296
12241WAT     H249671   4.562   6.476   4.991  2.3602 -0.6800  2.1574
12241WAT    EPW49672   4.524   6.496   5.057 -0.4022 -0.4406 -0.3544
12242WAT      O49673   3.262   0.110   6.854  0.0594 -0.2915 -0.1139
12242WAT     H149674   3.311   0.048   6.892 -0.4764 -1.2730 -0.9522
12242WAT     H249675   3.258   0.084   6.771 -2.8321 -0.9566  0.1061
12242WAT    EPW49676   3.268   0.097   6.847  0.0366  0.6586  0.1911
12243WAT      O49677   1.318   1.435   1.384  0.0625  0.1348  0.2767
12243WAT     H149678   1.370   1.434   1.313  0.1588 -0.1473  0.3467
12243WAT     H249679   1.340   1.508   1.425  0.2061  0.1586  0.1578
12243WAT    EPW49680   1.329   1.446   1.380 -0.5201  0.0549  0.0563
12244WAT      O49681   4.982   3.427   1.324  0.8539 -0.7610 -0.2692
12244WAT     H149682   5.024   3.393   1.393  1.0893 -1.3950 -0.7213
12244WAT     H249683   4.938   3.360   1.292 -2.4098  0.3069  1.5156
12244WAT    EPW49684   4.982   3.412   1.330  0.7090 -0.2641 -0.1511
12245WAT      O49685   6.877   0.648   5.916  0.2799 -0.1557 -0.0165
12245WAT     H149686   6.929   0.594   5.961  0.9067  0.6215  0.2176
12245WAT     H249687   6.844   0.701   5.977 -0.8425 -0.6610 -0.1538
12245WAT    EPW49688   6.879   0.648   5.932  0.3979  0.0647 -0.0848
12246WAT      O49689   0.187   4.018   1.239  0.2223  0.0815 -0.4760
12246WAT     H149690   0.158   4.099   1.226 -1.3823 -0.0902  1.3994
12246WAT     H249691   0.259   4.030   1.287  0.9940  0.4238 -1.6985
12246WAT    EPW49692   0.193   4.032   1.244 -0.4747  0.1491 -0.2350
12247WAT      O49693   0.388   0.205   3.267 -0.0281  0.1920 -0.3180
12247WAT     H149694   0.424   0.128   3.286 -0.5437 -0.0091 -0.1471
12247WAT     H249695   0.455   0.261   3.274  0.1574 -0.1114  0.4462
12247WAT    EPW49696   0.403   0.202   3.271 -0.0015  0.1259  0.3819
12248WAT      O49697   4.930   2.448   6.047 -0.8392  0.5026  0.2818
12248WAT     H149698   5.011   2.437   6.076 -0.8168  1.1646  0.4812
12248WAT     H249699   4.882   2.455   6.120 -1.2938 -1.2354  0.2010
12248WAT    EPW49700   4.935   2.447   6.062  0.0304 -0.0974 -0.6266
12249WAT      O49701   1.441   1.746   4.860  0.0066 -0.1523  0.2313
12249WAT     H149702   1.512   1.797   4.857  1.0267 -1.5502 -1.3875
12249WAT     H249703   1.475   1.665   4.857 -1.5785 -0.9355  1.8705
12249WAT    EPW49704   1.457   1.742   4.859  0.0054 -0.2007  0.1183
12250WAT      O49705   3.211   1.495   0.824  0.2460 -0.5270  0.2706
12250WAT     H149706   3.236   1.528   0.747 -1.5487 -0.5972 -0.3842
12250WAT     H249707   3.275   1.520   0.878  1.5935 -0.5327 -1.2240
12250WAT    EPW49708   3.224   1.504   0.821 -0.0099 -0.3198 -0.6775
12251WAT      O49709   7.379   6.540   2.523 -0.1970 -0.1144  0.3518
12251WAT     H149710   7.306   6.581   2.549 -0.3422 -0.5683  0.6799
12251WAT     H249711   7.349   6.471   2.479  0.0046 -0.7898  1.2300
12251WAT    EPW49712   7.364   6.536   2.520 -0.1964 -0.0996  0.2102
12252WAT      O49713   2.586   1.550   1.945  0.5363  0.1623  0.3743
12252WAT     H149714   2.518   1.571   1.995  0.8568 -1.6342  1.6840
12252WAT     H249715   2.632   1.624   1.940 -0.6845  0.9800  0.7913
12252WAT    EPW49716   2.583   1.564   1.952  0.4567 -0.0530 -0.8309
12253WAT      O49717   5.085   5.567   6.770 -0.4755 -0.0175  0.2151
12253WAT     H149718   5.078   5.597   6.852 -1.3814  0.5682 -0.0704
12253WAT     H249719   5.029   5.501   6.768 -0.8327  0.2959 -0.0853
12253WAT    EPW49720   5.076   5.561   6.782  0.4393  0.1529  0.2169
12254WAT      O49721   5.526   7.082   7.044  0.0568 -0.0364  0.0598
12254WAT     H149722   5.506   7.166   7.055  1.8368  0.6864 -1.7382
12254WAT     H249723   5.611   7.078   7.065  0.8898 -0.6151 -2.9083
12254WAT    EPW49724   5.536   7.094   7.049 -0.3037 -0.2681  0.0858
12255WAT      O49725   5.949   7.189   3.653  0.4182  0.1489 -0.3648
12255WAT     H149726   6.028   7.185   3.691  0.2933  1.9561  0.2115
12255WAT     H249727   5.914   7.111   3.671  0.7122  0.5728  2.5478
12255WAT    EPW49728   5.956   7.177   3.661  0.3478 -0.2027  0.5254
12256WAT      O49729   3.340   7.177   2.495  0.0151  0.0918 -0.2437
12256WAT     H149730   3.361   7.248   2.540  0.6181 -0.7353  0.8237
12256WAT     H249731   3.252   7.179   2.495  0.0242  0.7902 -0.1709
12256WAT    EPW49732   3.330   7.188   2.502  0.3281 -0.1809  0.4372
12257WAT      O49733   4.352   6.320   1.412 -0.1303  0.0359  0.7680
12257WAT     H149734   4.410   6.381   1.436  0.6222 -0.6864  0.8322
12257WAT     H249735   4.383   6.291   1.336 -1.7179  1.2894 -0.3963
12257WAT    EPW49736   4.365   6.325   1.405 -0.0725  0.2065  0.3705
12258WAT      O49737   0.710   1.316   4.306  0.4632  0.3504  0.7575
12258WAT     H149738   0.728   1.394   4.339  1.3072  0.2657  0.5296
12258WAT     H249739   0.628   1.323   4.278  0.7928  1.4150  0.0040
12258WAT    EPW49740   0.701   1.328   4.306  0.1834  0.2766 -0.0744
12259WAT      O49741   1.427   0.261   6.054 -0.4681 -0.4657 -0.3810
12259WAT     H149742   1.395   0.180   6.044 -0.9829 -0.3206  0.0221
12259WAT     H249743   1.435   0.269   6.141 -0.3818 -0.0960 -0.4209
12259WAT    EPW49744   1.424   0.250   6.065 -0.5153 -0.4632  0.5380
12260WAT      O49745   5.134   1.953   4.233  0.2466  0.5525  0.7034
12260WAT     H149746   5.120   1.971   4.317  1.7691 -2.8878  1.8810
12260WAT     H249747   5.055   1.932   4.203  0.1959 -2.7487  2.6864
12260WAT    EPW49748   5.120   1.953   4.241  0.7658 -0.0039  0.7888
12261WAT      O49749   4.876   5.786   7.161  0.7618 -0.2675  0.0968
12261WAT     H149750   4.817   5.724   7.178 -0.5520  0.9512  0.1129
12261WAT     H249751   4.833   5.841   7.109  1.9923  0.5117 -0.1212
12261WAT    EPW49752   4.861   5.785   7.156  0.1237  0.8357 -0.1516
12262WAT      O49753   3.091   5.426   5.259  0.0225 -0.2619 -0.2876
12262WAT     H149754   3.098   5.359   5.315 -0.9616 -2.1216 -2.2347
12262WAT     H249755   3.173   5.448   5.242  0.4668 -2.0886 -0.7632
12262WAT    EPW49756   3.104   5.419   5.265 -0.1455 -0.2545 -0.3568
12263WAT      O49757   4.133   5.388   4.795 -0.2278 -0.4801 -0.3426
12263WAT     H149758   4.089   5.344   4.857  1.2882 -0.2625  0.9353
12263WAT     H249759   4.118   5.341   4.723 -0.2403 -2.0168  0.6116
12263WAT    EPW49760   4.124   5.374   4.794  0.4471 -0.0646 -0.2979
12264WAT      O49761   3.793   5.768   5.870 -0.3149  0.4812  0.4289
12264WAT     H149762   3.867   5.726   5.852 -0.1735  1.3681 -1.2336
12264WAT     H249763   3.819   5.846   5.898 -0.6102  0.6654  0.2028
12264WAT    EPW49764   3.808   5.774   5.871 -0.4731  0.3920  0.0543
12265WAT      O49765   7.064   5.678   1.255  0.1217 -0.0768  0.1166
12265WAT     H149766   7.093   5.719   1.183 -2.1270  0.9746 -0.2968
12265WAT     H249767   7.059   5.595   1.230  1.0236 -0.0011 -0.3524
12265WAT    EPW49768   7.068   5.672   1.240 -0.1277  0.1121  0.1818
12266WAT      O49769   3.612   7.578   1.951 -0.3730  0.4205 -0.1910
12266WAT     H149770   3.538   7.534   1.940  0.4494 -0.8054 -0.9676
12266WAT     H249771   3.633   7.604   1.871  1.1040 -1.0528 -0.3280
12266WAT    EPW49772   3.604   7.576   1.938  0.3042 -0.4766 -0.5171
12267WAT      O49773   2.670   0.874   1.210 -0.5890  0.3546  0.1071
12267WAT     H149774   2.641   0.792   1.202  0.4818 -0.0605  0.2634
12267WAT     H249775   2.718   0.872   1.283  0.4279  0.8087 -0.5256
12267WAT    EPW49776   2.673   0.862   1.220 -0.2325 -0.6925 -0.2196
12268WAT      O49777   1.742   1.686   3.912 -0.0332  0.3021 -0.2528
12268WAT     H149778   1.756   1.735   3.842  0.7818  0.0544 -0.2805
12268WAT     H249779   1.666   1.715   3.944  0.4085  1.5399 -0.2992
12268WAT    EPW49780   1.733   1.697   3.907 -0.0895  0.3419  0.2160
12269WAT      O49781   7.447   4.874   0.924  0.0756  0.9699  0.7697
12269WAT     H149782   7.470   4.840   1.001  0.7729  2.8652  1.4434
12269WAT     H249783   7.460   4.808   0.868  0.0517 -0.2830  2.1742
12269WAT    EPW49784   7.452   4.859   0.927 -0.1235  0.1817  0.2210
12270WAT      O49785   2.964   3.659   6.179 -0.1468  0.3081 -0.1777
12270WAT     H149786   2.911   3.656   6.109 -0.6859 -2.5825  0.2106
12270WAT     H249787   3.042   3.640   6.145 -0.1527  0.2746 -0.1719
12270WAT    EPW49788   2.968   3.655   6.163  0.1635  0.5302 -0.2060
12271WAT      O49789   0.906   2.979   5.788  0.4112 -0.6755  0.2266
12271WAT     H149790   0.990   2.957   5.797  0.8734  1.8002  3.8400
12271WAT     H249791   0.909   3.053   5.741  0.1241 -1.0163 -0.3432
12271WAT    EPW49792   0.919   2.987   5.782 -0.0968  0.4800  0.0799
12272WAT      O49793   6.924   0.667   4.147 -0.5661  0.2989  0.3897
12272WAT     H149794   7.004   0.698   4.133  0.0425 -1.6975 -1.0430
12272WAT     H249795   6.930   0.583   4.124 -2.6575 -0.3563  1.8734
12272WAT    EPW49796   6.937   0.659   4.142 -0.1259 -0.3420  0.6156
12273WAT      O49797   5.249   1.073   0.343 -0.1417 -0.4685  0.7581
12273WAT     H149798   5.235   1.141   0.395 -0.6115  0.1766 -0.1753
12273WAT     H249799   5.226   1.005   0.392 -0.5609  0.1160  1.3929
12273WAT    EPW49800   5.243   1.073   0.358  0.1905 -0.0940 -0.0072
12274WAT      O49801   1.097   1.306   0.764 -0.3156 -0.0181  0.7076
12274WAT     H149802   1.111   1.391   0.780 -1.1897  0.1635  0.5670
12274WAT     H249803   1.024   1.306   0.716  1.3224 -0.6288 -2.0253
12274WAT    EPW49804   1.089   1.319   0.759  0.1523 -0.0560  0.3932
12275WAT      O49805   1.012   2.681   4.097 -0.3777  0.6507 -0.0038
12275WAT     H149806   1.021   2.658   4.014 -0.4847  1.3631 -0.2204
12275WAT     H249807   1.092   2.670   4.131 -0.4585 -0.1595 -0.0586
12275WAT    EPW49808   1.025   2.676   4.090  0.0987  0.1548  0.4736
12276WAT      O49809   5.521   1.687   0.445  0.3209  0.0852  0.1529
12276WAT     H149810   5.439   1.677   0.475  0.5512  1.7451  1.4948
12276WAT     H249811   5.530   1.774   0.440  2.0234 -0.0752  0.1111
12276WAT    EPW49812   5.510   1.698   0.449 -0.0482 -0.3100 -0.1939
12277WAT      O49813   2.376   3.092   0.182 -0.3793  0.3882  0.4000
12277WAT     H149814   2.388   3.099   0.096  0.4250  1.6658  0.5988
12277WAT     H249815   2.382   3.174   0.210  0.2679 -0.1193  1.7905
12277WAT    EPW49816   2.378   3.105   0.173 -0.5367 -0.2457 -0.2871
12278WAT      O49817   1.216   7.184   3.178  0.6672 -0.5638 -0.1485
12278WAT     H149818   1.255   7.110   3.153  0.1798 -0.6717 -0.6138
12278WAT     H249819   1.252   7.245   3.127 -0.7936 -0.8804 -1.6274
12278WAT    EPW49820   1.227   7.182   3.167 -0.1216 -0.3946 -0.1316
12279WAT      O49821   2.234   2.188   4.713 -0.4396 -0.0547 -0.2585
12279WAT     H149822   2.221   2.199   4.628 -0.7459  0.7732 -0.1080
12279WAT     H249823   2.208   2.263   4.749  0.9288  0.1153  0.4449
12279WAT    EPW49824   2.228   2.201   4.706 -0.0677 -0.8423 -0.0558
12280WAT      O49825   0.293   0.088   2.860 -0.6380  0.6709 -0.2447
12280WAT     H149826   0.243   0.081   2.931 -2.2953  1.0950 -1.2873
12280WAT     H249827   0.280   0.013   2.818  0.4966  0.3361 -0.0266
12280WAT    EPW49828   0.284   0.076   2.864 -0.0161 -0.7381 -0.4064
12281WAT      O49829   2.270   4.696   0.209  0.4770  0.1463 -0.1402
12281WAT     H149830   2.219   4.704   0.279  0.3092  1.0504 -0.3471
12281WAT     H249831   2.320   4.627   0.227  0.2376  0.1944  0.7404
12281WAT    EPW49832   2.270   4.687   0.222  0.4138 -0.2001 -0.0183
12282WAT      O49833   1.249   3.863   3.061 -0.0183 -0.1288  0.0100
12282WAT     H149834   1.226   3.813   2.993 -2.2546 -0.6675  1.0774
12282WAT     H249835   1.321   3.824   3.091  0.9675  0.0621 -1.9358
12282WAT    EPW49836   1.256   3.850   3.055  0.2882 -0.1597  0.1660
12283WAT      O49837   4.744   7.467   4.539  0.6706 -0.3351  0.3372
12283WAT     H149838   4.700   7.511   4.478  0.7045 -0.6067  0.1153
12283WAT     H249839   4.816   7.514   4.551  0.7102 -0.3353  0.0961
12283WAT    EPW49840   4.748   7.480   4.532  0.0236 -0.1514  0.0502
12284WAT      O49841   2.330   3.165   3.174 -0.7539 -0.3726  0.0324
12284WAT     H149842   2.303   3.082   3.170  0.5729 -0.7883 -0.7192
12284WAT     H249843   2.340   3.188   3.091  0.7807 -0.1130  0.2630
12284WAT    EPW49844   2.328   3.156   3.161 -0.4736 -0.2019 -0.1683
12285WAT      O49845   7.368   4.194   5.751  0.5371  0.6857  0.4123
12285WAT     H149846   7.341   4.150   5.681  1.7243  0.1536  0.2647
12285WAT     H249847   7.422   4.137   5.791  1.2915  1.6324  0.7689
12285WAT    EPW49848   7.372   4.179   5.747 -0.1469 -0.1900 -0.1340
12286WAT      O49849   7.149   1.031   5.800 -0.1759 -0.2294  0.3971
12286WAT     H149850   7.066   1.018   5.780 -0.3474  2.3889 -0.9751
12286WAT     H249851   7.154   1.005   5.883 -2.1124 -1.2601  0.2448
12286WAT    EPW49852   7.138   1.025   5.810  0.1573  0.1986  0.1566
12287WAT      O49853   2.473   1.111   1.861 -0.0023  0.1705 -0.0267
12287WAT     H149854   2.433   1.155   1.797 -0.6029 -0.4333 -0.0733
12287WAT     H249855   2.517   1.048   1.819  2.5023  1.8424 -0.1566
12287WAT    EPW49856   2.474   1.108   1.845  0.0493 -0.2231 -0.2032
12288WAT      O49857   4.776   3.462   0.156  0.1111 -0.0450 -0.2647
12288WAT     H149858   4.730   3.463   0.082  1.1454 -0.8092 -0.9552
12288WAT     H249859   4.747   3.532   0.199 -2.1600 -0.8635 -0.3267
12288WAT    EPW49860   4.765   3.473   0.151 -0.1272  0.8453 -0.6034
12289WAT      O49861   4.016   5.226   4.278  0.1963 -0.3381  0.5739
12289WAT     H149862   3.968   5.154   4.269 -2.6272  1.4493 -0.0473
12289WAT     H249863   4.030   5.231   4.364 -2.0230 -0.2643  0.9992
12289WAT    EPW49864   4.011   5.216   4.290  0.2224 -0.4444  0.7429
12290WAT      O49865   2.114   0.269   3.547 -0.1700  0.2892 -0.2418
12290WAT     H149866   2.170   0.204   3.530  0.6004  0.0964  2.4768
12290WAT     H249867   2.069   0.239   3.616 -0.7790  2.0635  0.1823
12290WAT    EPW49868   2.116   0.255   3.555 -0.0706 -0.3411 -0.8476
12291WAT      O49869   3.053   6.052   3.810  0.0878 -0.3446 -0.3385
12291WAT     H149870   3.102   5.980   3.805  1.2601  0.1876  2.1139
12291WAT     H249871   3.092   6.099   3.873 -2.8767  0.6826  0.8699
12291WAT    EPW49872   3.066   6.048   3.819  0.4108  0.5089  0.1120
12292WAT      O49873   0.752   0.724   0.240 -0.0060 -0.2356 -0.1953
12292WAT     H149874   0.813   0.679   0.283 -0.7379 -2.6843 -1.5262
12292WAT     H249875   0.701   0.755   0.303  1.9419  0.9604  0.8916
12292WAT    EPW49876   0.753   0.722   0.256  0.2364  0.0784 -0.1970
12293WAT      O49877   3.992   5.843   4.740  0.4092 -0.3348 -0.5765
12293WAT     H149878   4.060   5.896   4.727  1.7992 -1.7622  0.4344
12293WAT     H249879   3.985   5.800   4.664 -0.2949  0.7971 -1.1650
12293WAT    EPW49880   4.001   5.844   4.727  0.1969 -0.3460 -0.8991
12294WAT      O49881   2.054   1.951   6.914  0.0441 -0.2268 -0.4929
12294WAT     H149882   2.040   1.883   6.968 -1.3923 -0.2330 -0.8452
12294WAT     H249883   1.990   2.006   6.934  0.1997  0.2870 -1.3963
12294WAT    EPW49884   2.042   1.949   6.925  0.2664  0.0838 -0.2396
12295WAT      O49885   1.511   3.439   1.640  0.3029 -0.4736 -0.0335
12295WAT     H149886   1.505   3.353   1.624 -2.6747 -0.3388 -0.1714
12295WAT     H249887   1.436   3.471   1.609  2.0153  2.4850 -1.5049
12295WAT    EPW49888   1.499   3.431   1.633  0.5106 -0.5869  0.1083
12296WAT      O49889   4.721   5.870   0.610 -0.5452 -0.2382 -0.4494
12296WAT     H149890   4.649   5.865   0.560 -0.9483  1.4955 -0.1187
12296WAT     H249891   4.758   5.792   0.602 -1.5236 -0.5646 -2.0727
12296WAT    EPW49892   4.716   5.858   0.602 -0.3618 -0.3396  0.5558
12297WAT      O49893   1.053   5.424   5.056  0.1526 -0.0441 -0.3616
12297WAT     H149894   0.989   5.483   5.057 -1.8166 -2.0443  0.4407
12297WAT     H249895   1.120   5.466   5.091 -1.4469  1.4720  1.1107
12297WAT    EPW49896   1.053   5.439   5.061 -0.6077  0.6257 -0.0756
12298WAT      O49897   1.862   7.409   6.614  0.2751 -0.0321  0.5584
12298WAT     H149898   1.824   7.331   6.605  0.7765 -0.0554 -1.9619
12298WAT     H249899   1.947   7.392   6.610  0.5139  0.4297  2.5270
12298WAT    EPW49900   1.869   7.395   6.612 -0.0137 -0.1097  0.2795
12299WAT      O49901   6.493   3.666   0.079  0.4568  0.1421  0.3504
12299WAT     H149902   6.523   3.746   0.057  0.4587  0.2008  0.5647
12299WAT     H249903   6.483   3.626   0.002  0.7958  0.2285  0.2570
12299WAT    EPW49904   6.496   3.672   0.064  0.3083 -0.4435  0.6179
12300WAT      O49905   3.968   0.261   5.766  0.0828 -0.9824  0.2787
12300WAT     H149906   4.006   0.212   5.704  1.3765 -0.4465  0.6046
12300WAT     H249907   3.888   0.226   5.773  0.2798 -1.7637 -0.8948
12300WAT    EPW49908   3.962   0.248   5.758 -0.3730 -0.0289 -0.1342
12301WAT      O49909   6.803   1.746   7.289  0.4305  0.0986  0.6250
12301WAT     H149910   6.758   1.809   7.329 -2.1924 -1.0889 -0.2097
12301WAT     H249911   6.851   1.790   7.230 -2.7769  1.3758 -1.3144
12301WAT    EPW49912   6.803   1.762   7.286  0.0879 -0.4461  0.0184
12302WAT      O49913   5.084   1.513   6.076  0.2394  0.2006 -0.3255
12302WAT     H149914   5.137   1.531   6.009 -0.6181 -0.2018 -1.1276
12302WAT     H249915   5.018   1.568   6.065  0.0194  0.0241  0.1035
12302WAT    EPW49916   5.082   1.524   6.064  0.6878  0.1047 -0.4041
12303WAT      O49917   6.914   3.610   0.515  0.3996  0.0840  0.1301
12303WAT     H149918   6.853   3.669   0.496  1.0220  0.7663  0.1871
12303WAT     H249919   6.939   3.580   0.437 -1.0162 -1.2796  0.1605
12303WAT    EPW49920   6.909   3.615   0.501 -0.2874 -0.0293 -0.4782
12304WAT      O49921   6.225   3.664   4.665  0.6255 -0.5849 -0.3520
12304WAT     H149922   6.262   3.589   4.690 -1.3965 -2.5241 -2.6861
12304WAT     H249923   6.282   3.725   4.691  2.6850 -2.9312  1.0671
12304WAT    EPW49924   6.239   3.662   4.673  0.3467 -0.6959  0.0315
12305WAT      O49925   1.301   0.429   5.690 -0.4176  0.3833 -0.2732
12305WAT     H149926   1.257   0.396   5.758  0.0432 -1.0515 -0.6421
12305WAT     H249927   1.384   0.407   5.706 -0.2007  0.6679 -0.9512
12305WAT    EPW49928   1.307   0.421   5.703  0.3484  0.2985  0.1471
12306WAT      O49929   3.380   2.501   2.525  0.4134  0.4481 -0.4424
12306WAT     H149930   3.353   2.576   2.560  0.8364  0.2824  0.2564
12306WAT     H249931   3.313   2.447   2.537 -0.5666  1.1204 -2.4254
12306WAT    EPW49932   3.366   2.504   2.532  0.8673  0.2186  0.2111
12307WAT      O49933   1.546   6.085   6.140  0.3285 -0.5398 -0.0166
12307WAT     H149934   1.551   6.069   6.225 -0.3391 -1.3666 -0.1210
12307WAT     H249935   1.627   6.068   6.111  0.4242 -0.7543  0.3704
12307WAT    EPW49936   1.559   6.080   6.148 -0.0986  0.2647 -0.1306
12308WAT      O49937   7.609   5.226   3.395  0.4655  0.1720  0.3707
12308WAT     H149938   7.554   5.167   3.428  2.1057 -1.2684  0.6935
12308WAT     H249939   7.680   5.217   3.445  0.6094  2.8089  0.7450
12308WAT    EPW49940   7.611   5.216   3.407  0.3871 -0.2009  0.0848
12309WAT      O49941   0.929   4.759   1.319 -0.1494 -0.3498 -0.1668
12309WAT     H149942   0.932   4.672   1.324 -1.6535 -0.5214 -1.5800
12309WAT     H249943   0.985   4.778   1.254 -1.0773 -0.4264 -1.0078
12309WAT    EPW49944   0.938   4.749   1.310 -0.4135 -0.2282  0.2629
12310WAT      O49945   4.922   1.208   6.438 -0.4257  0.0210 -0.1982
12310WAT     H149946   4.931   1.134   6.484 -0.2662  0.7315  0.9625
12310WAT     H249947   4.994   1.253   6.459 -0.7033  0.6556 -0.5965
12310WAT    EPW49948   4.934   1.204   6.448  0.2791 -0.1588 -0.1828
12311WAT      O49949   7.023   7.297   4.039  0.0531  0.4395 -0.1185
12311WAT     H149950   6.944   7.306   4.073  0.4778  1.9108  0.5564
12311WAT     H249951   7.021   7.348   3.969 -0.0205 -0.6270 -0.9177
12311WAT    EPW49952   7.011   7.306   4.034 -0.2008 -0.3630 -0.2836
12312WAT      O49953   2.669   6.186   1.351 -0.2818  0.1274 -0.3110
12312WAT     H149954   2.674   6.234   1.278  2.0911 -0.4935 -0.6394
12312WAT     H249955   2.661   6.246   1.413  1.8335  1.0123 -0.7861
12312WAT    EPW49956   2.669   6.202   1.349  0.3327 -0.0795  0.3986
12313WAT      O49957   4.384   3.343   4.586  0.1228 -1.0828 -0.3415
12313WAT     H149958   4.379   3.335   4.499  0.9962 -1.4885 -0.3623
12313WAT     H249959   4.422   3.421   4.596  0.0077 -1.0291 -0.3254
12313WAT    EPW49960   4.389   3.354   4.575 -0.1226  0.0485  0.0576
12314WAT      O49961   2.282   6.568   0.219 -0.2578  0.0973 -0.5315
12314WAT     H149962   2.313   6.616   0.153 -2.7736  1.0068 -1.1430
12314WAT     H249963   2.304   6.614   0.290  1.6658 -0.4332 -0.7123
12314WAT    EPW49964   2.290   6.582   0.220  0.7965  0.0336 -0.0223
12315WAT      O49965   1.178   7.358   6.074  0.0187 -0.2171 -0.1931
12315WAT     H149966   1.169   7.324   6.155  0.4795 -1.4182 -0.6183
12315WAT     H249967   1.214   7.293   6.029  0.3849  0.6763 -1.2196
12315WAT    EPW49968   1.182   7.343   6.079  0.0039 -0.0108  0.6267
12316WAT      O49969   6.121   0.563   3.909 -0.4796  0.0671 -0.5546
12316WAT     H149970   6.050   0.601   3.877 -0.2990  1.1023  0.2260
12316WAT     H249971   6.186   0.604   3.870 -0.2909 -0.1407 -0.4625
12316WAT    EPW49972   6.120   0.574   3.898  0.2647 -0.5865  0.0781
12317WAT      O49973   1.813   1.529   0.417  0.4444  0.4519  0.4210
12317WAT     H149974   1.848   1.457   0.383 -1.1630  0.5013 -1.4726
12317WAT     H249975   1.792   1.577   0.347 -0.1500  1.9796  1.5853
12317WAT    EPW49976   1.815   1.525   0.402 -0.5122  0.1276 -0.4328
12318WAT      O49977   6.619   5.215   2.961  0.1830 -0.1138  0.0600
12318WAT     H149978   6.675   5.265   3.006  0.0546 -1.0482  1.3262
12318WAT     H249979   6.614   5.254   2.884  2.1116  0.3531  0.1079
12318WAT    EPW49980   6.627   5.228   2.956  0.0856 -0.4258  0.4639
12319WAT      O49981   4.894   2.134   2.970 -0.8431 -0.1404  0.0931
12319WAT     H149982   4.848   2.074   3.014 -1.5038 -0.7116 -1.3086
12319WAT     H249983   4.931   2.181   3.033 -2.3547 -0.4314  1.2719
12319WAT    EPW49984   4.892   2.132   2.986 -0.1639  0.1787 -0.2791
12320WAT      O49985   3.926   6.021   5.672  0.0197  0.6491 -0.1207
12320WAT     H149986   3.921   6.040   5.757 -1.2393  2.2269 -0.4979
12320WAT     H249987   3.980   6.081   5.640 -0.6542  0.9831 -0.6574
12320WAT    EPW49988   3.933   6.033   5.680  0.5125  0.4111 -0.9223
12321WAT      O49989   0.308   2.818   5.862 -0.2375  0.1948  0.0137
12321WAT     H149990   0.227   2.796   5.886 -1.3273  0.7197 -2.8759
12321WAT     H249991   0.314   2.790   5.780  2.0422  1.3639 -0.2946
12321WAT    EPW49992   0.297   2.811   5.854 -0.1746  0.9253  0.3432
12322WAT      O49993   4.420   5.645   4.080  0.3726  0.1387  0.3421
12322WAT     H149994   4.401   5.569   4.118  0.4810  1.3693  3.1358
12322WAT     H249995   4.483   5.624   4.024 -1.3756 -2.1925 -0.9370
12322WAT    EPW49996   4.427   5.630   4.078  0.0369 -0.7938 -0.0949
12323WAT      O49997   5.189   5.961   2.136  0.0201 -0.4379  0.1043
12323WAT     H149998   5.149   6.038   2.131 -1.4875 -1.2279 -1.3306
12323WAT     H249999   5.127   5.908   2.168  0.3177 -1.4215 -0.8517
12323WAT    EPW50000   5.174   5.965   2.140 -0.2979 -0.3962 -0.1385
12324WAT      O50001   7.474   4.021   1.269 -0.4913  0.3978 -0.1001
12324WAT     H150002   7.449   3.937   1.276 -0.2049  0.2439 -0.7827
12324WAT     H250003   7.401   4.062   1.245 -0.4516  0.2075 -0.5571
12324WAT    EPW50004   7.459   4.014   1.266  0.1897  0.2492 -0.1239
12325WAT      O50005   2.658   1.697   0.209  0.5075  0.5808  0.0725
12325WAT     H150006   2.672   1.669   0.128 -3.0433  1.9775 -1.2581
12325WAT     H250007   2.655   1.624   0.256  1.2289 -0.3968 -1.3439
12325WAT    EPW50008   2.660   1.682   0.204 -0.4841 -0.7930 -0.0348
12326WAT      O50009   6.729   6.758   4.497  0.0634  0.1655 -0.2145
12326WAT     H150010   6.697   6.837   4.478 -0.4256 -0.0004 -0.0787
12326WAT     H250011   6.802   6.776   4.541  0.4645  0.5488 -1.0089
12326WAT    EPW50012   6.735   6.772   4.500 -0.1106  0.1821 -0.1251
12327WAT      O50013   4.014   0.877   2.657 -0.1605 -0.3918  0.1510
12327WAT     H150014   4.074   0.916   2.706 -0.2249 -0.2647  0.1291
12327WAT     H250015   4.058   0.853   2.585 -0.2993  0.3920 -0.2087
12327WAT    EPW50016   4.029   0.879   2.653  0.3883  0.6907  0.0392
12328WAT      O50017   2.434   1.943   3.746  0.1014  0.0688  0.2293
12328WAT     H150018   2.515   1.937   3.779  0.2097 -1.7946 -0.2707
12328WAT     H250019   2.448   1.971   3.664  0.2349 -0.1062  0.1914
12328WAT    EPW50020   2.448   1.946   3.739  0.2330  0.5837 -0.0217
12329WAT      O50021   0.552   0.535   5.203 -0.4705 -0.1939  0.1951
12329WAT     H150022   0.504   0.466   5.226  0.5914 -0.8330  0.5603
12329WAT     H250023   0.565   0.523   5.117  1.0841 -1.3716  0.5473
12329WAT    EPW50024   0.547   0.523   5.193  0.0950  0.2770  0.9900
12330WAT      O50025   6.727   5.833   0.958  0.5941 -0.2777  0.2219
12330WAT     H150026   6.779   5.778   0.913  2.0375  0.6334  0.6927
12330WAT     H250027   6.672   5.863   0.898  0.3429 -1.5685 -0.2251
12330WAT    EPW50028   6.727   5.829   0.942  0.3143 -0.5915  0.1858
12331WAT      O50029   3.470   4.419   7.061 -0.0899  0.1025 -0.1153
12331WAT     H150030   3.522   4.389   7.124 -0.1749 -0.1612 -0.1698
12331WAT     H250031   3.475   4.358   6.999  0.6258  0.7539 -0.7045
12331WAT    EPW50032   3.478   4.405   7.062 -0.1635 -0.0102  0.1114
12332WAT      O50033   4.705   4.511   1.048 -0.1286 -0.0092  0.0832
12332WAT     H150034   4.720   4.594   1.023 -0.4241  0.0800  0.2000
12332WAT     H250035   4.620   4.501   1.033 -0.1855 -0.1466  0.5092
12332WAT    EPW50036   4.695   4.522   1.042 -0.0568 -0.0143  0.4519
12333WAT      O50037   5.491   4.064   7.294 -0.1156 -0.0873 -0.5714
12333WAT     H150038   5.554   4.025   7.340 -0.5878  0.0690  0.2454
12333WAT     H250039   5.425   4.006   7.299 -0.5338  0.4242 -0.1006
12333WAT    EPW50040   5.490   4.050   7.302  0.0966  0.1731 -0.4831
12334WAT      O50041   0.793   0.193   3.071 -0.5058  0.0552 -0.4671
12334WAT     H150042   0.723   0.187   3.019 -1.3799 -2.0068  0.8051
12334WAT     H250043   0.843   0.126   3.046 -0.1751  0.0131  0.2755
12334WAT    EPW50044   0.790   0.182   3.059 -0.4985 -0.0188 -0.4735
12335WAT      O50045   5.870   3.916   5.285 -0.8038 -0.4641  0.4419
12335WAT     H150046   5.786   3.891   5.275 -0.5343 -2.1325  1.8062
12335WAT     H250047   5.886   3.900   5.369  0.5870  0.9195  0.4785
12335WAT    EPW50048   5.860   3.910   5.296 -0.3649  0.4911  0.7773
12336WAT      O50049   5.809   7.581   1.976 -0.1900 -0.5902 -0.7075
12336WAT     H150050   5.726   7.555   1.981  0.4780 -2.6852  0.4964
12336WAT     H250051   5.849   7.514   1.938  0.8960  0.6099 -1.7616
12336WAT    EPW50052   5.802   7.568   1.971 -0.0308  0.5724 -0.1502
12337WAT      O50053   4.470   2.876   0.560 -0.1064 -0.6504 -0.0890
12337WAT     H150054   4.440   2.918   0.630  0.4702 -0.4810  0.0594
12337WAT     H250055   4.535   2.827   0.592 -0.6063 -1.4795 -0.2995
12337WAT    EPW50056   4.475   2.875   0.575 -0.2966 -0.6697 -0.2254
12338WAT      O50057   2.331   3.620   7.212 -0.3980 -0.2582 -0.6012
12338WAT     H150058   2.393   3.588   7.265  0.3037  1.2961 -0.4055
12338WAT     H250059   2.269   3.559   7.213  0.3425 -1.0375  0.6674
12338WAT    EPW50060   2.331   3.607   7.220  0.5522 -0.1332 -0.0751
12339WAT      O50061   1.801   3.134   3.013  0.4008  0.0407  0.4213
12339WAT     H150062   1.828   3.075   2.955  0.2461  0.1896  0.2004
12339WAT     H250063   1.714   3.132   3.007  0.3649 -0.2204  0.9211
12339WAT    EPW50064   1.792   3.125   3.004  0.4504  0.2426  0.2546
12340WAT      O50065   4.892   2.671   4.338 -0.5057  0.1510  0.4394
12340WAT     H150066   4.888   2.700   4.420 -0.2505 -2.1174  1.3042
12340WAT     H250067   4.915   2.742   4.293  0.8944  1.1215  2.5257
12340WAT    EPW50068   4.895   2.686   4.343 -0.2956  0.1799 -0.3048
12341WAT      O50069   3.539   4.287   6.288 -0.5691 -0.3305 -0.1022
12341WAT     H150070   3.483   4.344   6.321 -0.5040 -0.1524 -0.2983
12341WAT     H250071   3.616   4.328   6.292 -0.8142  0.5133 -2.2743
12341WAT    EPW50072   3.542   4.301   6.293 -0.0635 -0.2185  1.1080
12342WAT      O50073   4.663   5.830   0.238  0.1314  0.3208  0.0200
12342WAT     H150074   4.678   5.911   0.211 -0.9720  0.4761 -0.1941
12342WAT     H250075   4.616   5.841   0.311  0.3338 -0.1174  0.2172
12342WAT    EPW50076   4.658   5.843   0.245  0.8194  0.1341 -0.0556
12343WAT      O50077   2.456   3.383   2.193 -0.3090 -0.4790 -0.0321
12343WAT     H150078   2.530   3.413   2.230 -1.7121  1.5681  1.3416
12343WAT     H250079   2.461   3.297   2.205  1.3800 -0.2913  0.9842
12343WAT    EPW50080   2.468   3.375   2.200  0.0123 -0.3593 -0.2498
12344WAT      O50081   0.686   1.058   5.421  0.1437  0.2648 -0.1097
12344WAT     H150082   0.677   0.971   5.423  0.6274  0.1793  2.4229
12344WAT     H250083   0.762   1.070   5.379  0.1447 -0.5403 -0.3483
12344WAT    EPW50084   0.696   1.047   5.415  0.8138  0.0278  0.1119
12345WAT      O50085   0.755   2.573   0.231  0.0730  0.2552 -0.3051
12345WAT     H150086   0.770   2.615   0.307  1.2636 -3.2252  1.6303
12345WAT     H250087   0.748   2.489   0.255 -1.2236 -0.8644 -3.9315
12345WAT    EPW50088   0.757   2.567   0.246 -0.3321 -0.0273 -0.2162
12346WAT      O50089   1.765   7.568   1.526 -0.3688  0.2433  0.0363
12346WAT     H150090   1.737   7.486   1.532 -0.8642  0.4194  0.1687
12346WAT     H250091   1.848   7.564   1.555 -0.7340 -0.0196  1.1044
12346WAT    EPW50092   1.773   7.556   1.531 -0.2835  0.5328  0.1035
12347WAT      O50093   1.203   5.320   4.554 -0.0149 -0.1181  0.4136
12347WAT     H150094   1.172   5.240   4.536 -0.8731  0.0444  1.1130
12347WAT     H250095   1.288   5.314   4.533 -0.4782 -0.5668 -1.5495
12347WAT    EPW50096   1.211   5.307   4.548 -0.2214  0.6925  0.3896
12348WAT      O50097   1.518   5.458   5.924  0.5280 -0.1941 -0.4447
12348WAT     H150098   1.537   5.374   5.912  0.3543 -0.4139  0.6795
12348WAT     H250099   1.563   5.499   5.861  0.0041 -1.1836 -1.4824
12348WAT    EPW50100   1.528   5.451   5.913  0.0988 -0.0122 -0.5008
12349WAT      O50101   2.521   0.240   1.928 -0.1166 -0.4313  0.1018
12349WAT     H150102   2.485   0.235   1.848 -0.1307  0.2751  0.0558
12349WAT     H250103   2.587   0.183   1.924  1.8703  1.7919 -1.5038
12349WAT    EPW50104   2.525   0.231   1.915 -0.4503 -0.3589  0.2009
12350WAT      O50105   4.370   6.798   2.700  0.6029 -0.2804  0.3888
12350WAT     H150106   4.299   6.837   2.734 -0.1159 -0.2466 -1.0702
12350WAT     H250107   4.362   6.813   2.615  2.3589 -0.3403  0.1832
12350WAT    EPW50108   4.358   6.806   2.693 -0.1760 -0.2455  0.0832
12351WAT      O50109   4.584   5.995   1.052  0.0190 -0.8595 -0.2083
12351WAT     H150110   4.559   6.010   0.970 -1.2529 -0.5168  0.2138
12351WAT     H250111   4.670   6.005   1.050 -0.0209 -0.6695 -1.4610
12351WAT    EPW50112   4.593   5.999   1.040  0.0383 -0.3688 -0.7809
12352WAT      O50113   6.721   3.721   5.903  0.0042 -0.9107  0.3914
12352WAT     H150114   6.770   3.779   5.946  0.0539 -1.2237  0.7553
12352WAT     H250115   6.657   3.703   5.959 -1.5576  0.8107 -0.7018
12352WAT    EPW50116   6.718   3.727   5.917  0.7295 -0.1736 -0.0765
12353WAT      O50117   5.272   2.930   5.728  0.0327 -0.2503  0.3594
12353WAT     H150118   5.328   2.881   5.682  0.6746  1.7942 -1.1790
12353WAT     H250119   5.209   2.948   5.671  0.0303  1.0439  0.7375
12353WAT    EPW50120   5.271   2.925   5.713 -0.3876  0.0854  0.2406
12354WAT      O50121   1.962   2.547   4.697  1.0604  0.5405  0.2690
12354WAT     H150122   1.906   2.599   4.739  0.7689 -0.7743  1.6114
12354WAT     H250123   1.918   2.525   4.625 -0.2969 -0.5790  1.3592
12354WAT    EPW50124   1.947   2.551   4.693  0.0969  0.6158 -0.1741
12355WAT      O50125   3.800   4.307   3.886  0.6293 -0.8656 -0.7071
12355WAT     H150126   3.739   4.245   3.896  0.1564 -0.2489  0.3797
12355WAT     H250127   3.810   4.339   3.967 -0.0687  1.3382 -1.4309
12355WAT    EPW50128   3.793   4.303   3.900 -0.5957  0.1527  0.0642
12356WAT      O50129   6.020   4.291   4.428 -0.7551 -0.1007  0.3293
12356WAT     H150130   6.060   4.219   4.456  0.2256  0.5546  0.6592
12356WAT     H250131   5.976   4.264   4.357 -0.4164 -1.0135  0.4493
12356WAT    EPW50132   6.019   4.276   4.422  0.0229  0.2469  0.6568
12357WAT      O50133   6.628   1.490   0.399  0.0670  0.2443  0.1333
12357WAT     H150134   6.674   1.552   0.440 -0.6474  1.4856 -0.8412
12357WAT     H250135   6.679   1.469   0.331 -0.8570  1.9284 -1.1928
12357WAT    EPW50136   6.643   1.496   0.395  0.6558  0.4793 -0.0731
12358WAT      O50137   1.215   5.808   4.721 -0.0733  0.6012 -0.2630
12358WAT     H150138   1.135   5.803   4.758  0.8341  1.7769  2.0966
12358WAT     H250139   1.250   5.730   4.738 -0.9075 -0.2110 -1.9867
12358WAT    EPW50140   1.208   5.796   4.729 -0.0915  0.6714 -0.4801
12359WAT      O50141   1.606   1.028   3.558  0.5742 -0.2302  0.1876
12359WAT     H150142   1.595   1.027   3.472  2.3343 -2.6625 -0.1129
12359WAT     H250143   1.525   1.029   3.590 -0.1021  0.2047 -1.4648
12359WAT    EPW50144   1.592   1.028   3.550  0.3041 -0.5135  0.0809
12360WAT      O50145   4.678   1.098   7.124  0.0807 -0.1703 -0.8982
12360WAT     H150146   4.663   1.082   7.208  0.9377  0.5169 -0.5948
12360WAT     H250147   4.611   1.149   7.100  0.6690  0.9769 -0.1868
12360WAT    EPW50148   4.666   1.103   7.133 -0.1660 -0.0648  0.5396
12361WAT      O50149   0.345   2.656   0.591  0.4805 -0.1394  0.4541
12361WAT     H150150   0.301   2.596   0.546 -0.9187  0.0139  1.5635
12361WAT     H250151   0.424   2.620   0.601 -0.3356 -1.8256  1.1375
12361WAT    EPW50152   0.350   2.642   0.586  0.1303  0.7263  0.5968
12362WAT      O50153   4.315   1.173   4.957 -0.0284 -0.3006  0.0613
12362WAT     H150154   4.255   1.201   4.900 -0.8424 -0.0583  1.0161
12362WAT     H250155   4.389   1.176   4.911 -0.5681  0.4969 -0.7945
12362WAT    EPW50156   4.317   1.178   4.942  0.1032  0.1141 -0.1495
12363WAT      O50157   1.428   0.843   7.035  0.4956 -0.2503 -0.0857
12363WAT     H150158   1.437   0.767   7.077 -0.7012 -0.2412  0.2471
12363WAT     H250159   1.380   0.823   6.965  0.8047  0.0757 -0.3979
12363WAT    EPW50160   1.422   0.829   7.031  0.0125  0.3885 -0.7180
12364WAT      O50161   7.389   7.261   6.486  0.6103  0.4754  0.6547
12364WAT     H150162   7.350   7.312   6.427 -1.2567 -2.8484 -1.3005
12364WAT     H250163   7.462   7.236   6.445 -0.0388 -0.8020  0.2311
12364WAT    EPW50164   7.394   7.265   6.471  0.1410  0.0739  0.2284
12365WAT      O50165   0.542   6.053   6.065 -0.3575  0.5909  0.1948
12365WAT     H150166   0.547   5.969   6.042  1.7715  0.9799 -1.1025
12365WAT     H250167   0.457   6.072   6.058 -0.7136 -1.1332 -0.6786
12365WAT    EPW50168   0.530   6.044   6.061  0.0143  0.0457 -0.1012
12366WAT      O50169   4.184   0.159   1.466 -0.0075 -0.0020  0.4430
12366WAT     H150170   4.118   0.103   1.480  0.1944 -0.9211 -1.8218
12366WAT     H250171   4.174   0.218   1.529 -2.9620 -0.1367  0.2660
12366WAT    EPW50172   4.173   0.159   1.478 -0.1157  0.1473  0.6490
12367WAT      O50173   0.607   0.131   0.536  0.5752  0.5989 -0.4342
12367WAT     H150174   0.663   0.066   0.520  2.0134  1.4567  0.8166
12367WAT     H250175   0.615   0.145   0.622 -0.9310  1.3496 -0.3646
12367WAT    EPW50176   0.616   0.124   0.546 -0.0511 -0.0309  0.2711
12368WAT      O50177   1.954   6.394   4.547 -0.0443 -0.3447 -0.6083
12368WAT     H150178   1.924   6.319   4.516  0.2750 -0.1943 -1.2977
12368WAT     H250179   1.884   6.447   4.544 -0.5901 -0.9106  0.9870
12368WAT    EPW50180   1.939   6.391   4.542  0.3810 -0.0491  0.0563
12369WAT      O50181   5.128   2.427   0.988  0.4683 -0.0541 -0.4575
12369WAT     H150182   5.050   2.454   1.016  1.5620  0.6669  2.3415
12369WAT     H250183   5.143   2.475   0.917 -1.7049 -0.4275 -1.2302
12369WAT    EPW50184   5.119   2.438   0.982 -0.3998  0.2559  0.1558
12370WAT      O50185   3.824   3.551   0.901 -0.6247  0.1922 -0.6256
12370WAT     H150186   3.800   3.562   0.818  0.9993 -0.0503 -1.1761
12370WAT     H250187   3.901   3.592   0.906 -0.4891 -0.1636  0.6456
12370WAT    EPW50188   3.832   3.558   0.889  0.7673 -0.1340  0.0554
12371WAT      O50189   5.420   3.762   6.501 -0.2829  0.6552  0.0395
12371WAT     H150190   5.460   3.703   6.552 -0.1709  0.0132 -0.7555
12371WAT     H250191   5.370   3.807   6.556  1.9885  1.9170  1.1809
12371WAT    EPW50192   5.418   3.760   6.517 -0.0146 -0.7012 -0.7038
12372WAT      O50193   2.788   4.886   4.914 -0.0920 -0.0501 -0.0016
12372WAT     H150194   2.801   4.827   4.977 -2.6393 -0.3368  0.3339
12372WAT     H250195   2.776   4.837   4.843 -1.1506  0.0996  0.0687
12372WAT    EPW50196   2.788   4.870   4.912  0.8141  0.0387  0.3518
12373WAT      O50197   0.952   6.096   5.226 -0.8814  0.2943 -0.0539
12373WAT     H150198   0.976   6.178   5.246 -1.3435  0.7040 -1.1358
12373WAT     H250199   0.955   6.055   5.303 -0.8774  1.3850  0.5511
12373WAT    EPW50200   0.956   6.102   5.241 -0.6386 -0.1135 -0.3623
12374WAT      O50201   7.170   4.070   4.013  0.1090 -0.1104 -0.0624
12374WAT     H150202   7.111   4.080   4.076  0.7815 -1.5313  0.8273
12374WAT     H250203   7.233   4.023   4.050  0.3010 -1.4472 -1.9235
12374WAT    EPW50204   7.171   4.065   4.028  0.5253  0.2845 -0.1721
12375WAT      O50205   4.158   2.610   2.562 -0.2821 -0.2748  0.2366
12375WAT     H150206   4.105   2.640   2.625  0.0139  0.6722  0.0513
12375WAT     H250207   4.109   2.550   2.521 -0.8076 -0.2221  0.7722
12375WAT    EPW50208   4.143   2.606   2.565  0.6836  0.2802  0.2677
12376WAT      O50209   5.448   0.490   6.014  0.1135 -0.2210  0.1758
12376WAT     H150210   5.506   0.494   6.079  1.8682 -0.9236 -1.2730
12376WAT     H250211   5.414   0.570   6.011  2.4924  0.8318 -0.2163
12376WAT    EPW50212   5.451   0.502   6.023  0.2070 -1.2602 -0.1692
12377WAT      O50213   2.973   5.840   4.028  0.4113 -0.9041 -0.0637
12377WAT     H150214   3.010   5.791   4.090 -1.1080 -2.8300 -0.5630
12377WAT     H250215   2.906   5.878   4.069 -1.2661 -3.0397 -0.6456
12377WAT    EPW50216   2.968   5.839   4.043  0.0415 -0.1039 -0.3753
12378WAT      O50217   1.737   7.539   7.126 -0.4067 -0.1740  0.4168
12378WAT     H150218   1.733   7.532   7.040 -0.0288 -0.1835  0.3993
12378WAT     H250219   1.680   7.603   7.144 -1.3372 -0.9362  0.2768
12378WAT    EPW50220   1.728   7.548   7.116 -0.4058  0.6638  0.3620
12379WAT      O50221   6.550   5.207   6.674  0.5215  0.6168  0.2656
12379WAT     H150222   6.528   5.288   6.698 -0.5595  0.7429 -1.0398
12379WAT     H250223   6.603   5.220   6.605 -0.2073  0.2322 -0.3861
12379WAT    EPW50224   6.555   5.221   6.667  0.2303 -0.5628  0.3887
12380WAT      O50225   4.488   0.976   6.574  0.1292 -0.0266  0.2646
12380WAT     H150226   4.428   0.929   6.532 -0.5547 -0.2246  1.3972
12380WAT     H250227   4.456   1.057   6.573 -0.9178 -0.3464  2.0386
12380WAT    EPW50228   4.474   0.981   6.568  0.6631 -0.1188  0.0302
12381WAT      O50229   6.444   4.726   4.700  0.4579 -0.1277 -0.3731
12381WAT     H150230   6.389   4.678   4.748 -0.4945  0.7146 -0.5754
12381WAT     H250231   6.494   4.667   4.661  0.6758 -0.8769  0.9627
12381WAT    EPW50232   6.443   4.710   4.702 -0.5331  0.1594  0.3669
12382WAT      O50233   1.408   3.201   4.044  0.1018  0.2272  0.2418
12382WAT     H150234   1.343   3.235   4.091 -1.3641 -0.3930 -1.2370
12382WAT     H250235   1.427   3.264   3.987  0.2643  0.1309  0.1895
12382WAT    EPW50236   1.401   3.215   4.042  0.4333 -0.4693 -0.3031
12383WAT      O50237   6.695   1.889   4.823  0.0530 -0.2168 -0.2152
12383WAT     H150238   6.614   1.856   4.821  0.5769 -1.7197 -3.1928
12383WAT     H250239   6.744   1.820   4.845  0.6156  0.5432  0.9962
12383WAT    EPW50240   6.690   1.874   4.826  0.2422 -0.4221  0.1124
12384WAT      O50241   6.771   4.644   1.661 -0.2675 -0.4803 -0.1904
12384WAT     H150242   6.802   4.725   1.665 -0.3610 -0.4488 -0.0799
12384WAT     H250243   6.805   4.612   1.588 -0.5948 -0.1869 -0.4736
12384WAT    EPW50244   6.780   4.651   1.651 -0.4814  0.3707  0.3950
12385WAT      O50245   1.239   5.812   6.171  0.3859  0.4731 -0.0597
12385WAT     H150246   1.267   5.769   6.100  0.8524  0.5502  0.0720
12385WAT     H250247   1.204   5.749   6.221  0.0516  0.4202 -0.3595
12385WAT    EPW50248   1.238   5.796   6.168 -0.7824 -0.2102  0.1487
12386WAT      O50249   0.774   1.322   1.015  0.3914 -0.4180  0.6955
12386WAT     H150250   0.759   1.400   0.978  1.2011 -0.3371  0.4993
12386WAT     H250251   0.700   1.304   1.057 -0.3155 -0.1892 -0.4032
12386WAT    EPW50252   0.761   1.331   1.015  0.1800 -0.0000 -0.0642
12387WAT      O50253   7.400   5.905   0.874  0.3129  0.3274 -0.2343
12387WAT     H150254   7.483   5.919   0.852  0.7012  1.6984  1.8108
12387WAT     H250255   7.356   5.925   0.802  1.6061  2.3348 -0.5411
12387WAT    EPW50256   7.406   5.910   0.860  0.3445  0.8216 -0.1259
12388WAT      O50257   4.224   7.138   0.852 -0.2659  0.4019  0.0236
12388WAT     H150258   4.224   7.072   0.909 -0.4437 -0.0955 -0.5444
12388WAT     H250259   4.270   7.107   0.785 -1.1250  0.5179 -0.6331
12388WAT    EPW50260   4.231   7.124   0.851 -0.2102  0.2628 -0.1364
12389WAT      O50261   7.487   5.161   0.185  0.2717  0.2062 -0.0814
12389WAT     H150262   7.508   5.121   0.111  2.8226 -1.6737  1.5063
12389WAT     H250263   7.399   5.162   0.184  0.2309 -0.4249 -2.6998
12389WAT    EPW50264   7.477   5.155   0.174 -0.3547  0.2883 -0.2260
12390WAT      O50265   5.371   0.232   2.431 -0.5456 -0.2407  0.4588
12390WAT     H150266   5.430   0.236   2.495  0.5555  1.3902 -0.5929
12390WAT     H250267   5.401   0.287   2.371 -3.4027  1.1393  0.0900
12390WAT    EPW50268   5.384   0.241   2.432 -0.4135  0.5617  0.1226
12391WAT      O50269   7.270   0.267   1.229 -0.4030 -0.3616 -0.4662
12391WAT     H150270   7.318   0.332   1.196  0.4050 -0.5280  0.3368
12391WAT     H250271   7.325   0.227   1.283 -1.0528 -1.3951 -0.5483
12391WAT    EPW50272   7.285   0.271   1.232  0.0997  0.4618  0.2735
12392WAT      O50273   1.355   1.305   1.715  0.7728  0.0826  0.5708
12392WAT     H150274   1.288   1.284   1.766  1.7162 -0.6697  1.5259
12392WAT     H250275   1.355   1.392   1.717  0.1810  0.0817  1.0074
12392WAT    EPW50276   1.345   1.315   1.723 -0.5133 -1.1530  0.4367
12393WAT      O50277   6.546   3.825   0.773  0.0723 -0.2208 -0.5300
12393WAT     H150278   6.602   3.881   0.810  0.5740 -0.6614 -0.6092
12393WAT     H250279   6.564   3.749   0.811 -0.1225 -0.4717 -0.9268
12393WAT    EPW50280   6.557   3.822   0.784 -0.1749  0.5878 -0.0380
12394WAT      O50281   4.019   2.266   6.293 -0.0304 -0.2434  0.0869
12394WAT     H150282   4.087   2.268   6.348  0.0466 -0.3645 -0.0025
12394WAT     H250283   3.951   2.282   6.345  0.0417 -0.3481  0.2181
12394WAT    EPW50284   4.019   2.269   6.309 -0.4820 -0.4088  0.3246
12395WAT      O50285   3.691   2.510   1.965 -0.1700  0.6499 -0.0211
12395WAT     H150286   3.693   2.459   1.893 -2.1027  0.4998 -0.0156
12395WAT     H250287   3.709   2.454   2.029  1.9567  0.8577 -0.3720
12395WAT    EPW50288   3.694   2.494   1.964 -0.4004 -0.1418  0.4024
12396WAT      O50289   4.168   2.285   1.308  0.6347  0.4748  0.2707
12396WAT     H150290   4.125   2.299   1.383 -1.5068 -2.7078 -0.1782
12396WAT     H250291   4.222   2.219   1.327  1.7885  1.1734 -0.4584
12396WAT    EPW50292   4.170   2.277   1.322 -0.4957  0.3201  0.4764
12397WAT      O50293   2.682   3.727   1.254  0.7865  0.5076  0.0481
12397WAT     H150294   2.610   3.776   1.246  0.3081 -0.0967  0.4879
12397WAT     H250295   2.653   3.646   1.236  1.3563  0.2553  0.2444
12397WAT    EPW50296   2.667   3.722   1.250  0.4019 -0.4984 -0.2151
12398WAT      O50297   3.086   1.450   1.522  0.3449 -0.0041 -0.3138
12398WAT     H150298   3.097   1.451   1.609  3.5991 -0.5459 -0.5762
12398WAT     H250299   3.116   1.528   1.497  1.2759 -0.5725 -1.0328
12398WAT    EPW50300   3.092   1.461   1.531  0.0739 -0.0505  0.0276
12399WAT      O50301   5.238   3.751   0.781  0.3719 -0.2059 -0.1417
12399WAT     H150302   5.209   3.680   0.822  1.7861 -0.6002  0.2435
12399WAT     H250303   5.268   3.801   0.846  2.1518 -0.6042 -0.5939
12399WAT    EPW50304   5.238   3.748   0.797 -0.0122  0.9014 -0.7891
12400WAT      O50305   4.760   2.404   6.285 -0.8136 -0.1885  0.0992
12400WAT     H150306   4.838   2.378   6.315  0.3639 -0.0892 -2.5836
12400WAT     H250307   4.717   2.328   6.274 -0.3148 -0.4123 -0.3528
12400WAT    EPW50308   4.765   2.389   6.288 -0.1979  0.0731 -0.1553
12401WAT      O50309   1.791   5.764   1.240 -0.4508 -0.3844 -0.0769
12401WAT     H150310   1.717   5.798   1.270 -0.6052 -0.2477 -0.6131
12401WAT     H250311   1.853   5.805   1.286 -0.6114  0.8970 -0.9745
12401WAT    EPW50312   1.789   5.775   1.252  0.5893 -0.5662 -0.0589
12402WAT      O50313   2.245   2.743   6.009 -0.0606 -0.0353 -0.6656
12402WAT     H150314   2.199   2.811   6.037  0.5763 -0.2341  0.9297
12402WAT     H250315   2.284   2.773   5.937 -1.0473  0.7622 -0.8949
12402WAT    EPW50316   2.244   2.757   6.002 -0.2920  0.2499  0.2312
12403WAT      O50317   4.635   2.756   0.009  0.4745  0.0620  0.4866
12403WAT     H150318   4.666   2.782   0.086 -0.5926  0.0621  0.9376
12403WAT     H250319   4.682   2.684  -0.009  1.0874  0.3634  0.8810
12403WAT    EPW50320   4.647   2.749   0.018  0.3293  0.5249  0.8291
12404WAT      O50321   6.591   2.421   6.781  0.3180  0.1634 -0.0700
12404WAT     H150322   6.643   2.383   6.840 -0.8808  0.7986  1.4493
12404WAT     H250323   6.636   2.492   6.757  0.2797  0.5809  1.0504
12404WAT    EPW50324   6.606   2.426   6.786 -0.3108  0.0813 -0.0800
12405WAT      O50325   4.858   5.254   3.991 -0.0783  0.2396 -0.4155
12405WAT     H150326   4.893   5.245   4.070 -1.0574  0.4682  0.0673
12405WAT     H250327   4.901   5.197   3.942 -0.1601 -0.6582  0.5275
12405WAT    EPW50328   4.869   5.244   3.996 -0.0889 -0.4845  0.5236
12406WAT      O50329   1.776   4.236   5.679 -0.2032  0.3419  0.1288
12406WAT     H150330   1.855   4.229   5.642  0.4608  0.1470  1.5078
12406WAT     H250331   1.723   4.253   5.612  1.1980  1.8020 -0.6733
12406WAT    EPW50332   1.780   4.237   5.663  0.2708  0.7950 -0.3196
12407WAT      O50333   0.859   2.476   6.559  0.3749  0.1156 -0.5077
12407WAT     H150334   0.783   2.451   6.594  1.0365  0.3906  1.2341
12407WAT     H250335   0.896   2.401   6.534  0.4650 -0.2529  0.6732
12407WAT    EPW50336   0.854   2.461   6.560  0.0522 -0.1609  0.5749
12408WAT      O50337   1.048   5.973   7.573 -0.2803 -0.1515 -0.6731
12408WAT     H150338   1.038   6.010   7.652  0.4020  0.8790 -1.0433
12408WAT     H250339   0.979   6.000   7.528 -0.2300 -0.0393 -0.6828
12408WAT    EPW50340   1.036   5.982   7.578 -0.0583  0.5697 -0.2421
12409WAT      O50341   2.625   7.296   7.084 -0.6045  0.4884 -0.1088
12409WAT     H150342   2.640   7.380   7.066  0.7294  0.4025  0.4980
12409WAT     H250343   2.604   7.262   7.006 -1.2428  1.3806 -0.3464
12409WAT    EPW50344   2.624   7.304   7.070 -0.1331 -0.1480 -0.4829
12410WAT      O50345   1.734   5.505   0.215  0.7144  0.4064 -0.5084
12410WAT     H150346   1.760   5.546   0.287  0.9505 -0.7110  0.0605
12410WAT     H250347   1.808   5.489   0.172  0.6067  0.7457 -0.8235
12410WAT    EPW50348   1.749   5.508   0.219 -0.5424 -0.0985  0.3625
12411WAT      O50349   2.961   3.410   2.801  0.0033  0.0930 -0.3318
12411WAT     H150350   2.990   3.394   2.720  1.8890  0.3702  0.2217
12411WAT     H250351   2.976   3.496   2.812  0.5046 -0.0849  0.5387
12411WAT    EPW50352   2.968   3.421   2.791 -0.2469 -0.3686  0.0508
12412WAT      O50353   6.257   4.372   6.725  0.1423  0.0706  0.0893
12412WAT     H150354   6.338   4.369   6.694  0.0195 -0.5210 -0.1856
12412WAT     H250355   6.267   4.405   6.805  0.3274  3.0121 -1.0265
12412WAT    EPW50356   6.270   4.376   6.732  0.2083 -0.5367  0.2283
12413WAT      O50357   3.479   3.692   1.078  0.5556 -0.2974 -0.4795
12413WAT     H150358   3.451   3.689   0.995 -0.3020 -2.0435 -0.1795
12413WAT     H250359   3.551   3.642   1.077  0.3731 -0.5739 -0.1256
12413WAT    EPW50360   3.486   3.684   1.065  0.7193 -0.2335 -0.1647
12414WAT      O50361   3.263   2.862   6.344  0.6493 -0.0743  0.2394
12414WAT     H150362   3.307   2.810   6.398 -0.6408 -0.8104  0.6469
12414WAT     H250363   3.230   2.923   6.397  0.3842 -0.0924  0.0985
12414WAT    EPW50364   3.264   2.863   6.360 -0.1013  0.3807 -0.0680
12415WAT      O50365   3.023   1.442   6.397  0.4175  0.0355 -0.0810
12415WAT     H150366   2.967   1.486   6.448  0.8375  1.4174 -0.7535
12415WAT     H250367   3.021   1.486   6.322 -0.0358 -1.8464 -1.2192
12415WAT    EPW50368   3.014   1.455   6.394 -0.1473  0.4843  0.2024
12416WAT      O50369   1.598   5.976   6.401 -0.5495 -0.3607 -0.3727
12416WAT     H150370   1.596   5.891   6.418 -0.0913 -0.0626  1.2954
12416WAT     H250371   1.684   5.993   6.392 -0.6273 -0.0246 -0.5051
12416WAT    EPW50372   1.611   5.966   6.402 -0.0129  0.2115  0.1724
12417WAT      O50373   1.909   4.494   6.675  0.3771 -0.1585  0.4005
12417WAT     H150374   1.907   4.486   6.762 -2.6368  2.4106  0.7621
12417WAT     H250375   1.989   4.525   6.659  0.4523  0.9742  2.5538
12417WAT    EPW50376   1.921   4.498   6.685 -0.5438 -0.1630  0.1502
12418WAT      O50377   4.024   5.205   4.954  0.6949  0.7410  0.6133
12418WAT     H150378   4.039   5.133   4.908  2.1879  0.5078  1.3981
12418WAT     H250379   3.965   5.181   5.013  1.7453 -0.0926  1.3641
12418WAT    EPW50380   4.017   5.191   4.956  0.0242  0.3844  0.6721
12419WAT      O50381   2.464   3.596   5.342  0.6219 -0.1724 -0.4647
12419WAT     H150382   2.470   3.682   5.336  0.7253  0.0431  1.8160
12419WAT     H250383   2.532   3.567   5.296  1.0259  0.9914 -0.6144
12419WAT    EPW50384   2.475   3.604   5.334 -0.1283  0.1996  0.3735
12420WAT      O50385   1.665   1.728   4.622 -0.3161 -0.0889  0.5095
12420WAT     H150386   1.688   1.765   4.698  1.5527 -0.2175  0.0466
12420WAT     H250387   1.663   1.796   4.567 -2.0731  0.0668  0.7276
12420WAT    EPW50388   1.668   1.744   4.625  0.4212  0.4027  0.1867
12421WAT      O50389   3.523   7.053   2.078 -0.5037 -0.2903 -0.0530
12421WAT     H150390   3.584   6.991   2.088  1.7146  1.6906 -0.2878
12421WAT     H250391   3.566   7.116   2.034 -2.6705  1.3284  0.0066
12421WAT    EPW50392   3.539   7.053   2.073  0.0999  0.0427 -0.2447
12422WAT      O50393   6.188   5.273   0.486  0.3436  0.2025  0.1899
12422WAT     H150394   6.112   5.231   0.495  0.2064 -0.0969 -1.9878
12422WAT     H250395   6.240   5.232   0.544 -0.6014 -0.9365  0.2840
12422WAT    EPW50396   6.184   5.261   0.496 -0.2989 -0.8882 -0.5502
12423WAT      O50397   1.311   0.217   5.099 -0.0157 -0.0668 -0.0756
12423WAT     H150398   1.246   0.264   5.133  0.0609 -0.0318  0.0221
12423WAT     H250399   1.355   0.189   5.168  0.6876  0.7815 -0.1536
12423WAT    EPW50400   1.308   0.220   5.114  0.0113  0.6894  0.7229
12424WAT      O50401   4.911   1.248   6.817 -0.1120 -0.1824  0.3309
12424WAT     H150402   4.876   1.309   6.869 -2.4004 -0.5791 -0.5809
12424WAT     H250403   4.841   1.217   6.774  1.4330 -1.1242 -1.6307
12424WAT    EPW50404   4.895   1.253   6.818 -0.0516  0.0020 -0.0042
12425WAT      O50405   6.248   3.068   1.694  0.2932 -0.1840 -0.6542
12425WAT     H150406   6.302   3.006   1.665  1.3286  0.0031  0.7379
12425WAT     H250407   6.226   3.040   1.774 -2.5206 -0.7489 -1.4973
12425WAT    EPW50408   6.252   3.055   1.702  0.1299  0.2764 -0.0681
12426WAT      O50409   5.511   5.262   7.526 -0.5128 -0.4310  0.7730
12426WAT     H150410   5.435   5.296   7.552 -1.0183  0.8921 -2.1383
12426WAT     H250411   5.541   5.319   7.468  1.9814 -1.7012  0.6754
12426WAT    EPW50412   5.504   5.276   7.522 -0.2843  0.2285 -0.6744
12427WAT      O50413   1.441   6.681   4.289  0.6044 -0.4994  0.2705
12427WAT     H150414   1.409   6.654   4.365  2.5768  0.8575  1.6733
12427WAT     H250415   1.482   6.610   4.257  0.4800 -0.8487  0.8745
12427WAT    EPW50416   1.442   6.666   4.295  0.0300  0.1388 -0.2852
12428WAT      O50417   7.473   3.156   3.538 -0.1228 -0.1154 -0.1956
12428WAT     H150418   7.516   3.163   3.614  0.8572  0.4512 -0.7681
12428WAT     H250419   7.418   3.223   3.540 -1.9047 -1.5201  1.0599
12428WAT    EPW50420   7.471   3.167   3.550  0.0564 -0.2556  0.4740
12429WAT      O50421   3.345   5.790   4.575 -0.2603 -0.2217  0.3064
12429WAT     H150422   3.351   5.711   4.610 -0.3366 -0.2589  0.2339
12429WAT     H250423   3.394   5.839   4.628  1.1936 -0.6374 -0.5968
12429WAT    EPW50424   3.353   5.786   4.588  0.2532  0.4020 -0.1241
12430WAT      O50425   1.917   3.948   2.170  0.1832  0.5009  0.4958
12430WAT     H150426   1.936   3.921   2.251  0.8981 -1.4279 -0.2471
12430WAT     H250427   1.993   3.943   2.128 -0.4730 -0.1742 -0.6904
12430WAT    EPW50428   1.931   3.943   2.176 -0.5205 -0.4606 -0.0831
12431WAT      O50429   5.902   0.222   6.236 -0.1438 -0.0336 -1.3653
12431WAT     H150430   5.859   0.199   6.309 -0.7031 -0.1200 -1.7080
12431WAT     H250431   5.878   0.304   6.223 -0.1169 -0.0468 -1.4998
12431WAT    EPW50432   5.892   0.231   6.245  0.5113 -0.0997  0.3970
12432WAT      O50433   6.759   1.517   1.892  0.3177  0.5214  0.0479
12432WAT     H150434   6.700   1.576   1.866  0.1098  0.7354  0.9814
12432WAT     H250435   6.834   1.560   1.889  0.5126  0.1558 -1.4615
12432WAT    EPW50436   6.761   1.532   1.888  0.4592 -0.4453  0.2270
12433WAT      O50437   2.015   3.927   3.606  0.4294 -0.0769 -0.1046
12433WAT     H150438   2.010   3.911   3.521 -0.7108  1.4301 -0.3719
12433WAT     H250439   2.096   3.960   3.616  0.6903 -0.5782 -0.5359
12433WAT    EPW50440   2.027   3.930   3.595  0.0602  0.7130  0.0758
12434WAT      O50441   4.762   1.497   4.925  0.7200 -0.3941  0.6778
12434WAT     H150442   4.841   1.459   4.929  1.5471  0.8743 -1.5884
12434WAT     H250443   4.758   1.545   4.998  3.0321  1.2059 -0.1431
12434WAT    EPW50444   4.773   1.498   4.936 -0.1857  0.1683  0.0110
12435WAT      O50445   3.206   3.378   5.857 -0.1710 -0.7519 -0.1744
12435WAT     H150446   3.125   3.397   5.884  0.1692  1.6425 -0.6585
12435WAT     H250447   3.257   3.411   5.920  0.5361 -4.0351  1.2141
12435WAT    EPW50448   3.202   3.386   5.870  0.3686  0.6558  0.5905
12436WAT      O50449   0.336   0.655   6.779 -0.0796  0.2315  0.8965
12436WAT     H150450   0.411   0.619   6.806  0.5693  0.4796 -0.4652
12436WAT     H250451   0.320   0.716   6.839 -0.1058 -0.9379  2.1154
12436WAT    EPW50452   0.345   0.659   6.792 -0.7371  0.0580 -0.3624
12437WAT      O50453   7.516   6.993   0.220 -0.3681 -0.1309  0.3531
12437WAT     H150454   7.494   6.972   0.302 -1.5453  2.0050  0.6560
12437WAT     H250455   7.602   6.979   0.217 -0.6287 -2.3140  1.2490
12437WAT    EPW50456   7.525   6.988   0.231 -0.2059 -0.0031 -0.0905
12438WAT      O50457   2.806   5.710   6.335 -0.0506 -0.2874 -0.0535
12438WAT     H150458   2.780   5.782   6.294  0.2235 -0.7181 -1.0068
12438WAT     H250459   2.892   5.708   6.320  0.1415 -0.2012  0.9592
12438WAT    EPW50460   2.815   5.720   6.327  0.7449 -0.4502 -0.3373
12439WAT      O50461   4.171   1.050   1.457  0.3476  0.5148 -0.2535
12439WAT     H150462   4.254   1.038   1.433  0.0404 -1.7309 -0.3625
12439WAT     H250463   4.177   1.109   1.521  1.8750  1.2975 -1.0442
12439WAT    EPW50464   4.184   1.057   1.463 -0.1354  0.5658 -0.0476
12440WAT      O50465   3.908   0.191   1.322 -0.1251  0.1597 -0.6896
12440WAT     H150466   3.983   0.218   1.287  0.3895 -0.8994 -0.4435
12440WAT     H250467   3.855   0.259   1.313 -0.0530 -0.0427 -3.5835
12440WAT    EPW50468   3.912   0.205   1.315 -0.3513  0.4571  0.7778
12441WAT      O50469   0.303   6.217   3.216  0.3826 -0.2075  0.7551
12441WAT     H150470   0.261   6.172   3.279 -3.6625 -1.1214 -2.1866
12441WAT     H250471   0.255   6.289   3.207  0.2187 -0.5621 -1.8237
12441WAT    EPW50472   0.290   6.221   3.224 -0.2942 -0.0930  0.6449
12442WAT      O50473   1.684   5.223   0.577 -0.2109  0.3056 -0.0279
12442WAT     H150474   1.676   5.165   0.513 -0.8520  0.5288 -0.1593
12442WAT     H250475   1.720   5.293   0.538 -1.5477  0.8177 -0.3955
12442WAT    EPW50476   1.688   5.225   0.562  0.3083 -0.3687  0.0706
12443WAT      O50477   4.892   1.319   1.788 -0.4636  0.2906  0.0084
12443WAT     H150478   4.895   1.395   1.829 -0.0524 -0.0523  0.6303
12443WAT     H250479   4.967   1.280   1.811 -1.6717 -1.2560  1.5876
12443WAT    EPW50480   4.903   1.324   1.797  0.6994 -0.4915  0.3495
12444WAT      O50481   5.783   1.935   6.477 -0.2670 -0.4831 -0.3007
12444WAT     H150482   5.746   1.855   6.474 -0.3029 -0.4462 -0.8862
12444WAT     H250483   5.857   1.925   6.432 -1.1749  0.2766 -2.0611
12444WAT    EPW50484   5.788   1.921   6.470 -0.1144  0.2253 -0.4243
12445WAT      O50485   3.947   6.660   0.835  0.2887 -0.5513 -0.2572
12445WAT     H150486   3.893   6.635   0.771  1.4404 -1.4765 -0.9155
12445WAT     H250487   3.913   6.623   0.906  0.9266 -2.5757 -0.9312
12445WAT    EPW50488   3.934   6.651   0.836 -0.2002 -0.6269 -0.4201
12446WAT      O50489   6.243   1.872   0.305 -0.2496  0.3765  0.5708
12446WAT     H150490   6.303   1.819   0.270 -0.6532  0.2277  0.0950
12446WAT     H250491   6.178   1.871   0.247 -2.0570 -1.9280  2.4259
12446WAT    EPW50492   6.242   1.864   0.291  0.4456 -0.3393  0.6439
12447WAT      O50493   3.145   4.998   2.834 -0.6726 -0.0956 -0.3836
12447WAT     H150494   3.128   5.053   2.768 -1.8874 -0.8830 -0.7650
12447WAT     H250495   3.148   5.050   2.904  1.3607  0.8601 -1.0973
12447WAT    EPW50496   3.143   5.014   2.834  0.2460  0.1275 -1.0632
12448WAT      O50497   4.209   3.426   2.660 -0.3889  0.0341  0.1625
12448WAT     H150498   4.258   3.375   2.610 -0.2084  0.9462 -0.6162
12448WAT     H250499   4.186   3.374   2.726  0.5615 -0.7757 -0.1186
12448WAT    EPW50500   4.213   3.411   2.663 -0.1905 -0.0267  0.1670
12449WAT      O50501   7.207   3.273   6.502  0.7707  0.1733 -0.2459
12449WAT     H150502   7.195   3.201   6.455  2.2544 -1.0282  1.0704
12449WAT     H250503   7.288   3.297   6.482  2.0241 -1.2142  2.5900
12449WAT    EPW50504   7.217   3.266   6.492 -1.0584 -0.3242 -0.3353
12450WAT      O50505   7.391   6.226   3.729 -0.0294 -0.2173  0.0392
12450WAT     H150506   7.317   6.265   3.753  0.3673 -0.0120  0.9755
12450WAT     H250507   7.368   6.142   3.720 -0.4026 -0.1382  0.2492
12450WAT    EPW50508   7.377   6.219   3.731 -0.4277 -1.1522 -0.4045
12451WAT      O50509   1.130   0.321   2.682  0.1709 -0.1314  0.3412
12451WAT     H150510   1.068   0.276   2.640 -2.6965  1.4681  2.4452
12451WAT     H250511   1.119   0.402   2.653  0.9531  0.2628  1.1065
12451WAT    EPW50512   1.119   0.326   2.671  0.1842 -0.1471 -0.3831
12452WAT      O50513   5.695   3.316   0.281  0.5270 -0.4587  0.6293
12452WAT     H150514   5.780   3.336   0.276  0.3467  0.1027 -0.4776
12452WAT     H250515   5.679   3.279   0.204 -0.4624  0.3703  0.4237
12452WAT    EPW50516   5.705   3.314   0.269 -0.1305 -0.2053  0.0205
12453WAT      O50517   3.375   5.326   2.544 -0.1774  0.3597  0.8255
12453WAT     H150518   3.450   5.370   2.536  0.3034 -0.7292 -0.9766
12453WAT     H250519   3.318   5.375   2.499 -0.1787  0.2987  0.7623
12453WAT    EPW50520   3.377   5.340   2.536  0.3537  0.4356  0.6037
12454WAT      O50521   0.104   7.578   1.246 -0.2900  0.7503 -0.4052
12454WAT     H150522   0.099   7.535   1.171 -1.3191  0.0597  0.0383
12454WAT     H250523   0.100   7.662   1.221 -2.7875  0.5283 -1.0477
12454WAT    EPW50524   0.102   7.584   1.231  0.8087  0.2944  0.4784
12455WAT      O50525   0.419   1.191   0.019 -0.0763  0.1907 -0.1375
12455WAT     H150526   0.334   1.169   0.019  0.3435 -1.6580  0.4567
12455WAT     H250527   0.454   1.137  -0.040  0.5187  1.9389 -1.4869
12455WAT    EPW50528   0.411   1.180   0.010 -0.1139 -0.5113  0.0615
12456WAT      O50529   1.051   7.547   3.393 -0.6405 -0.7366  0.5545
12456WAT     H150530   1.049   7.465   3.422 -0.4895 -1.3177 -1.0279
12456WAT     H250531   1.064   7.593   3.466 -1.9133 -1.9935  1.6430
12456WAT    EPW50532   1.053   7.542   3.408 -0.2741 -0.8386 -0.7791
12457WAT      O50533   1.432   5.744   4.931  0.2556  0.1882  0.0732
12457WAT     H150534   1.351   5.747   4.963 -0.0701  0.8442 -0.7935
12457WAT     H250535   1.452   5.659   4.936 -0.1315  0.1358  1.1249
12457WAT    EPW50536   1.423   5.732   4.937  0.1490  0.6185  0.3406
12458WAT      O50537   2.287   7.412   3.049 -0.2689  0.2954 -0.0172
12458WAT     H150538   2.328   7.336   3.062  1.7936  1.3350  0.0080
12458WAT     H250539   2.337   7.469   3.092 -1.7105  1.7053 -0.1279
12458WAT    EPW50540   2.300   7.409   3.058 -0.2003 -0.7905 -0.1123
12459WAT      O50541   7.558   6.714   4.567 -0.7153 -0.3470 -0.3061
12459WAT     H150542   7.493   6.658   4.582 -1.0718 -0.1402 -1.0418
12459WAT     H250543   7.522   6.773   4.514 -0.1423  0.1922 -0.1017
12459WAT    EPW50544   7.543   6.714   4.561 -0.5001  0.1237 -0.4782
12460WAT      O50545   2.731   5.632   7.418 -0.3347 -0.0029 -0.2425
12460WAT     H150546   2.665   5.596   7.374 -0.8602  0.5798  0.0404
12460WAT     H250547   2.732   5.714   7.388  0.3155 -0.0235 -0.2932
12460WAT    EPW50548   2.721   5.639   7.407 -0.1606 -0.1969  0.3833
12461WAT      O50549   1.992   3.452   1.631  0.2418  0.0313  0.3233
12461WAT     H150550   1.977   3.517   1.575  1.2594 -0.1949 -0.2439
12461WAT     H250551   1.951   3.477   1.704 -2.9762 -0.6623 -1.1104
12461WAT    EPW50552   1.984   3.465   1.634 -0.2107  0.3084  0.3889
12462WAT      O50553   2.492   6.454   2.375  0.3821 -0.3037  0.0040
12462WAT     H150554   2.430   6.493   2.422 -0.0447  0.0963 -0.8712
12462WAT     H250555   2.559   6.511   2.379 -0.6094  1.1403 -2.1927
12462WAT    EPW50556   2.493   6.469   2.382  0.2461 -0.2092 -0.2636
12463WAT      O50557   6.282   0.186   0.673 -0.4538 -0.5269 -0.6391
12463WAT     H150558   6.343   0.214   0.618 -1.3276  0.3294 -1.2039
12463WAT     H250559   6.304   0.223   0.749  1.3574 -2.5406 -0.0742
12463WAT    EPW50560   6.294   0.195   0.676 -0.8086 -0.1677 -0.1930
12464WAT      O50561   2.499   7.335   2.372 -0.0104 -0.0853 -0.1306
12464WAT     H150562   2.415   7.327   2.351 -0.0030 -1.4737  0.2627
12464WAT     H250563   2.540   7.296   2.306  0.4222  1.5837 -0.8959
12464WAT    EPW50564   2.492   7.328   2.359  0.6068  0.4510 -0.5572
12465WAT      O50565   1.706   4.831   6.928 -0.0163 -0.0897 -0.2057
12465WAT     H150566   1.779   4.797   6.960  0.2865  1.8145  1.2701
12465WAT     H250567   1.663   4.859   6.999 -1.3518  0.4391 -1.1701
12465WAT    EPW50568   1.710   4.830   6.943 -0.1550  0.2390 -0.1164
12466WAT      O50569   3.372   3.945   2.283 -0.1635  0.2393 -0.3041
12466WAT     H150570   3.424   3.954   2.353 -0.6327  0.5449  0.0141
12466WAT     H250571   3.330   3.870   2.299 -0.2523  0.2963 -0.2703
12466WAT    EPW50572   3.374   3.935   2.296 -0.9289 -0.3671 -0.6515
12467WAT      O50573   1.339   3.111   7.127  0.1729  0.4458  0.1440
12467WAT     H150574   1.330   3.196   7.146 -2.1329  0.1566  0.6595
12467WAT     H250575   1.257   3.082   7.126  0.9214 -1.8214  0.0840
12467WAT    EPW50576   1.325   3.119   7.129  0.1227 -0.3920 -1.0718
12468WAT      O50577   4.372   3.479   5.210  0.1310 -0.0894 -0.5903
12468WAT     H150578   4.387   3.479   5.296 -0.1388  0.5727 -0.5407
12468WAT     H250579   4.341   3.399   5.194 -0.0626 -0.1235 -0.0324
12468WAT    EPW50580   4.370   3.467   5.220 -0.4765  0.7201 -0.3273
12469WAT      O50581   5.941   5.274   0.190  0.1534  0.0562  0.2464
12469WAT     H150582   5.994   5.258   0.124 -1.0315 -1.8463 -0.3153
12469WAT     H250583   5.871   5.309   0.152  0.5926  1.7287  0.8788
12469WAT    EPW50584   5.938   5.277   0.175  0.0955 -0.5004 -0.0508
12470WAT      O50585   6.291   7.373   0.912 -0.5121  0.6333 -0.1551
12470WAT     H150586   6.263   7.347   0.991 -0.3009  1.2886  0.1395
12470WAT     H250587   6.318   7.455   0.925 -0.3438  0.7038 -0.8809
12470WAT    EPW50588   6.291   7.381   0.925  0.6365 -0.1252 -0.2597
12471WAT      O50589   0.711   5.456   1.199 -0.3165 -0.0249  0.5513
12471WAT     H150590   0.728   5.439   1.115 -1.8840 -0.4703  0.2979
12471WAT     H250591   0.636   5.500   1.197  0.6649  1.8418  1.6220
12471WAT    EPW50592   0.703   5.460   1.186  0.0990 -0.0135  0.4438
12472WAT      O50593   0.678   0.728   4.349  0.1396 -0.4656 -0.1914
12472WAT     H150594   0.744   0.697   4.301 -0.2991  1.4057 -2.1837
12472WAT     H250595   0.616   0.746   4.290 -0.9049  0.8396  1.2238
12472WAT    EPW50596   0.679   0.726   4.333  0.1784  0.0862  0.6036
12473WAT      O50597   0.099   2.686   4.626  0.6965  0.6347 -0.2452
12473WAT     H150598   0.017   2.697   4.600  0.4340  0.6754  0.5698
12473WAT     H250599   0.144   2.682   4.551  0.1642  2.1858 -0.6926
12473WAT    EPW50600   0.094   2.687   4.611 -0.4421 -0.4696 -0.5452
12474WAT      O50601   2.194   5.265   2.055 -0.3583  0.0618 -0.3006
12474WAT     H150602   2.261   5.305   2.016 -1.2580  3.5194  1.3214
12474WAT     H250603   2.135   5.257   1.991 -0.6816  2.8369 -0.4624
12474WAT    EPW50604   2.195   5.270   2.040  0.1793 -0.2889 -0.4500
12475WAT      O50605   4.156   6.448   7.560 -0.8866  0.1313  0.1664
12475WAT     H150606   4.152   6.464   7.474  1.0209  1.2912  0.2269
12475WAT     H250607   4.142   6.526   7.596 -0.9987 -0.2129  0.8878
12475WAT    EPW50608   4.153   6.462   7.553  0.0556  0.4480 -0.1340
12476WAT      O50609   6.356   7.610   3.413  0.4107  0.3881 -0.4270
12476WAT     H150610   6.373   7.600   3.328 -2.0278 -0.5695 -0.8931
12476WAT     H250611   6.346   7.529   3.442 -1.0612  0.7413  0.1908
12476WAT    EPW50612   6.357   7.597   3.405 -0.1506 -0.1078  0.0570
12477WAT      O50613   6.392   0.409   4.273  0.0823 -0.2042 -0.3807
12477WAT     H150614   6.474   0.438   4.270  0.2901 -0.8029 -2.6726
12477WAT     H250615   6.346   0.472   4.234 -0.2830 -0.5968 -0.6008
12477WAT    EPW50616   6.397   0.423   4.267 -0.3235 -0.0997 -0.2283
12478WAT      O50617   5.120   6.808   0.150  0.3826 -0.1323 -0.0375
12478WAT     H150618   5.040   6.838   0.134  0.9324  1.3123 -0.3275
12478WAT     H250619   5.146   6.776   0.073 -0.2366 -1.4809  0.2909
12478WAT    EPW50620   5.112   6.808   0.136  0.4037  0.5300 -0.1445
12479WAT      O50621   1.336   1.604   6.850 -0.3194  0.5534  0.4138
12479WAT     H150622   1.418   1.599   6.822 -0.6676 -0.1122 -0.5668
12479WAT     H250623   1.305   1.675   6.811 -0.3517  0.5050  0.3493
12479WAT    EPW50624   1.343   1.614   6.840 -0.4883 -0.1248  0.1393
12480WAT      O50625   1.778   4.102   5.194  0.3217  0.7564  0.1859
12480WAT     H150626   1.772   4.075   5.111  1.1677  0.6971  0.1379
12480WAT     H250627   1.832   4.044   5.231 -0.7422  0.2510  1.0149
12480WAT    EPW50628   1.785   4.089   5.188 -0.1553 -0.1927  0.1713
12481WAT      O50629   3.480   3.108   6.837  0.1185 -0.4556  0.3005
12481WAT     H150630   3.404   3.134   6.802  0.8189  1.7858  0.2784
12481WAT     H250631   3.472   3.128   6.922 -0.1379 -2.3634  0.7755
12481WAT    EPW50632   3.468   3.115   6.844  0.1244  0.1415  0.2270
12482WAT      O50633   6.072   4.413   0.567  0.4380 -0.0397  0.8319
12482WAT     H150634   6.053   4.467   0.633 -0.1328  1.3460 -0.4123
12482WAT     H250635   6.110   4.345   0.606  1.7568  1.5241  2.3971
12482WAT    EPW50636   6.075   4.411   0.582 -0.0084 -0.1439 -0.1459
12483WAT      O50637   1.578   3.423   3.428  0.1296 -0.0319  0.0780
12483WAT     H150638   1.630   3.406   3.361  0.7409 -2.9173  1.1532
12483WAT     H250639   1.633   3.427   3.496 -0.6464  1.2387  0.6767
12483WAT    EPW50640   1.594   3.421   3.428  0.1140 -0.2838  0.0621
12484WAT      O50641   1.495   0.417   1.039  0.2991  0.5234 -0.0579
12484WAT     H150642   1.449   0.350   1.007 -1.1410  1.4677 -0.0143
12484WAT     H250643   1.467   0.423   1.121 -1.8499  3.0351 -0.8690
12484WAT    EPW50644   1.484   0.408   1.046 -0.6927  0.0210 -0.0418
12485WAT      O50645   2.900   5.126   0.767  0.5750  0.2366  0.3142
12485WAT     H150646   2.893   5.110   0.852 -0.6692  0.6953  0.3022
12485WAT     H250647   2.917   5.211   0.763  0.4345  0.2529  0.0860
12485WAT    EPW50648   2.902   5.136   0.779  0.0467 -0.0686 -0.0981
12486WAT      O50649   3.862   4.950   0.063  0.1892 -0.2784 -0.0718
12486WAT     H150650   3.917   4.914   0.006  0.6529  2.0629 -1.2112
12486WAT     H250651   3.872   4.901   0.135  3.0164 -0.5838 -0.5502
12486WAT    EPW50652   3.872   4.937   0.065  0.1264 -0.3175  0.6455
12487WAT      O50653   6.667   4.715   5.198  0.5616 -0.4539 -0.0209
12487WAT     H150654   6.596   4.667   5.179 -0.2624 -0.9210  3.5328
12487WAT     H250655   6.633   4.791   5.223  1.4809 -0.0338 -0.0326
12487WAT    EPW50656   6.651   4.719   5.199  0.4985 -0.0391  0.2734
12488WAT      O50657   2.279   0.374   3.997  0.2090 -0.2509  0.3605
12488WAT     H150658   2.297   0.378   4.082 -1.5491 -0.7662  0.8067
12488WAT     H250659   2.244   0.452   3.979 -0.2376 -0.4489  0.3424
12488WAT    EPW50660   2.276   0.386   4.007  0.3990 -0.3685  0.2045
12489WAT      O50661   2.259   7.304   1.082  0.0395  0.4478 -0.8904
12489WAT     H150662   2.277   7.279   1.163  2.3017 -0.3963 -1.5750
12489WAT     H250663   2.220   7.235   1.047  1.3880 -0.1878 -1.2125
12489WAT    EPW50664   2.256   7.290   1.089  0.1517  0.3532  0.0800
12490WAT      O50665   6.801   6.958   0.399 -0.3128 -0.4118 -0.1645
12490WAT     H150666   6.752   7.026   0.424  0.6764  0.3641 -0.2966
12490WAT     H250667   6.746   6.911   0.350 -1.2763 -0.1955  0.6671
12490WAT    EPW50668   6.786   6.961   0.396  0.1106 -0.0975 -0.0406
12491WAT      O50669   1.232   5.138   5.768 -0.0502  0.2954 -0.0856
12491WAT     H150670   1.164   5.089   5.791  0.2979  0.9386  2.6757
12491WAT     H250671   1.199   5.219   5.767  0.1688  0.3855 -1.1181
12491WAT    EPW50672   1.217   5.143   5.771 -0.0510 -0.7006  0.2786
12492WAT      O50673   6.027   3.754   1.141  0.8653 -0.1281 -0.2545
12492WAT     H150674   6.065   3.723   1.069 -1.5335  0.6174 -1.9584
12492WAT     H250675   6.036   3.840   1.135 -0.4878  0.0321 -0.4085
12492WAT    EPW50676   6.034   3.762   1.130  0.1218  0.0464  0.3415
12493WAT      O50677   4.159   3.723   5.188 -0.2791  0.0779  0.1111
12493WAT     H150678   4.200   3.646   5.185 -2.2280 -0.9966 -1.3872
12493WAT     H250679   4.074   3.701   5.185 -0.9341  2.2632  0.8082
12493WAT    EPW50680   4.152   3.709   5.187 -0.1918 -0.3623  0.6237
12494WAT      O50681   3.152   7.516   3.977 -0.2733 -0.0070  0.0909
12494WAT     H150682   3.095   7.582   3.965  0.3896  0.4002 -1.0269
12494WAT     H250683   3.104   7.445   3.962 -0.9297  0.2279  1.0180
12494WAT    EPW50684   3.136   7.515   3.973  0.5630  1.0338  0.6272
12495WAT      O50685   5.127   3.320   1.583 -0.0609  0.1242  0.2366
12495WAT     H150686   5.065   3.320   1.644 -0.3041  0.5694 -0.0050
12495WAT     H250687   5.200   3.300   1.626 -0.6483 -2.3496  0.2495
12495WAT    EPW50688   5.128   3.317   1.598 -0.1337  0.2013  0.4205
12496WAT      O50689   2.375   6.810   6.807  0.2992  0.0776 -0.1650
12496WAT     H150690   2.380   6.845   6.887  0.3898 -0.1960 -0.0496
12496WAT     H250691   2.340   6.874   6.759  0.4620  0.3280  0.0433
12496WAT    EPW50692   2.370   6.825   6.811  0.1510 -0.0541 -0.0987
12497WAT      O50693   2.826   2.658   4.167  0.4589  0.4215 -0.1638
12497WAT     H150694   2.778   2.717   4.124  1.3459  1.8902  0.7758
12497WAT     H250695   2.815   2.681   4.251 -0.0213 -1.4353  0.3330
12497WAT    EPW50696   2.817   2.670   4.173 -1.0080 -0.1224 -0.2083
12498WAT      O50697   4.770   3.528   5.982  0.1485  0.6740  0.5641
12498WAT     H150698   4.844   3.501   6.020 -0.0316 -1.6470 -0.5495
12498WAT     H250699   4.790   3.535   5.898 -0.2339  2.8264  0.5794
12498WAT    EPW50700   4.784   3.525   5.975 -0.0010  0.1744 -0.2525
12499WAT      O50701   0.081   6.268   0.891 -0.6893  0.2657  0.2521
12499WAT     H150702   0.143   6.302   0.840 -0.2906  2.6333  2.1313
12499WAT     H250703   0.121   6.257   0.968 -1.9701 -0.5325  0.8443
12499WAT    EPW50704   0.096   6.272   0.895 -0.2007  0.7971  0.1166
12500WAT      O50705   2.073   7.282   0.315  0.4542  0.2901  0.2464
12500WAT     H150706   2.066   7.367   0.297  1.9127 -0.1193 -2.9446
12500WAT     H250707   2.143   7.257   0.269 -0.9003 -2.9485 -0.3430
12500WAT    EPW50708   2.083   7.291   0.305  0.0149 -0.3891  0.2089
12501WAT      O50709   5.346   0.423   7.154 -0.1977 -0.0091  0.2184
12501WAT     H150710   5.388   0.427   7.231  1.8398  1.8297 -0.8901
12501WAT     H250711   5.299   0.496   7.152  0.8104  0.6435 -0.8004
12501WAT    EPW50712   5.345   0.434   7.165 -0.0867  0.0238  0.1533
12502WAT      O50713   7.515   6.060   1.489  0.5663  0.6745  1.0573
12502WAT     H150714   7.602   6.062   1.485  0.6611 -1.2966  1.1014
12502WAT     H250715   7.494   5.990   1.440 -1.0311  1.4112  0.6320
12502WAT    EPW50716   7.525   6.050   1.481 -0.1931  0.4113  0.3621
12503WAT      O50717   4.542   5.490   6.494 -0.1262  0.2700  0.3152
12503WAT     H150718   4.606   5.491   6.552 -0.0454 -0.2654  0.2438
12503WAT     H250719   4.582   5.463   6.420 -0.4532 -0.2083  0.3072
12503WAT    EPW50720   4.557   5.486   6.491 -0.1410 -0.1208 -0.0838
12504WAT      O50721   4.005   4.894   0.511  0.4560 -0.3786  0.3193
12504WAT     H150722   3.958   4.944   0.564  2.5431  2.2418 -0.0950
12504WAT     H250723   4.038   4.833   0.565  1.7534  1.6361  1.9636
12504WAT    EPW50724   4.003   4.892   0.527 -0.2545  0.6780 -0.1304
12505WAT      O50725   0.543   1.083   2.055  0.2970 -0.1321  0.2668
12505WAT     H150726   0.470   1.095   2.010  0.2423 -0.1377  0.3531
12505WAT     H250727   0.601   1.134   2.015  0.3620 -0.4614 -0.0759
12505WAT    EPW50728   0.541   1.092   2.043 -0.1428  0.2700  0.6042
12506WAT      O50729   1.796   7.021   5.486  0.2560  0.5884 -0.6323
12506WAT     H150730   1.832   6.975   5.551 -1.4708 -1.0714 -0.7784
12506WAT     H250731   1.813   6.973   5.415 -0.6872  0.6804 -0.9334
12506WAT    EPW50732   1.804   7.007   5.485  0.1487  0.2251 -0.3908
12507WAT      O50733   1.988   6.080   3.420 -0.1096 -0.1241  0.2037
12507WAT     H150734   1.924   6.054   3.474  1.7833 -2.4404  1.5306
12507WAT     H250735   1.984   6.022   3.354 -0.0215  0.3738 -0.2486
12507WAT    EPW50736   1.978   6.068   3.418 -0.1326  0.2526  0.1750
12508WAT      O50737   5.697   3.702   7.063  0.3735  0.4290  0.6189
12508WAT     H150738   5.656   3.659   7.126 -1.7711  1.0859 -0.2369
12508WAT     H250739   5.764   3.650   7.042 -1.5047 -2.0444  0.3214
12508WAT    EPW50740   5.701   3.688   7.069 -0.2451 -0.6252  0.0243
12509WAT      O50741   1.057   2.574   6.188  0.4587 -0.0291 -0.1751
12509WAT     H150742   1.092   2.495   6.200 -0.5449 -0.4854 -0.1460
12509WAT     H250743   1.112   2.612   6.132  2.5257  0.3443  1.9384
12509WAT    EPW50744   1.071   2.568   6.181  0.2460 -0.1607 -0.3017
12510WAT      O50745   4.609   3.749   4.314 -0.4193  0.1110 -0.1726
12510WAT     H150746   4.543   3.774   4.366 -0.2764 -0.5030  0.3107
12510WAT     H250747   4.589   3.667   4.292  0.3361 -0.1957  0.2397
12510WAT    EPW50748   4.597   3.741   4.318  0.3065  0.0387  0.1564
12511WAT      O50749   4.198   0.106   3.401  0.8688  0.4170 -0.0908
12511WAT     H150750   4.114   0.130   3.396  1.0565  0.9925 -0.7038
12511WAT     H250751   4.241   0.182   3.405  1.3529  0.1268  0.5145
12511WAT    EPW50752   4.192   0.121   3.401 -0.3187  0.1477 -0.4756
12512WAT      O50753   3.495   1.056   4.155  0.1593  0.3037 -0.4520
12512WAT     H150754   3.432   1.002   4.129 -0.3437  0.0109  1.2737
12512WAT     H250755   3.469   1.134   4.127 -0.0251 -0.0757 -1.3610
12512WAT    EPW50756   3.482   1.059   4.147  0.3656 -0.9729  0.1316
12513WAT      O50757   5.568   4.574   0.501  0.0911  0.0255 -0.3332
12513WAT     H150758   5.650   4.591   0.478  0.3928  0.0374  0.6948
12513WAT     H250759   5.530   4.652   0.500 -0.0221 -0.0379 -1.2263
12513WAT    EPW50760   5.575   4.588   0.498 -0.2861 -0.0136 -0.3610
12514WAT      O50761   1.951   1.839   5.156 -0.4843 -0.0316 -0.3691
12514WAT     H150762   1.982   1.825   5.076 -1.3805 -1.7131 -0.4708
12514WAT     H250763   1.879   1.789   5.159 -2.3369  2.4777  0.3752
12514WAT    EPW50764   1.945   1.830   5.145  0.3889 -0.8848  0.5845
12515WAT      O50765   5.505   0.916   2.126  0.0449  0.1080 -0.6832
12515WAT     H150766   5.546   0.847   2.160 -0.1151 -0.4766 -1.6442
12515WAT     H250767   5.534   0.918   2.044 -2.0291 -0.4896 -1.4997
12515WAT    EPW50768   5.515   0.906   2.119 -0.6633  0.3260  0.3443
12516WAT      O50769   2.764   7.003   2.169 -0.4298 -0.0063 -0.1357
12516WAT     H150770   2.788   7.015   2.086 -0.4881 -0.7543 -0.2674
12516WAT     H250771   2.727   7.079   2.191  0.5506  0.5790 -0.4526
12516WAT    EPW50772   2.762   7.016   2.160  0.0528 -0.2400  0.0243
12517WAT      O50773   4.490   6.033   3.361 -0.5110 -0.3847  0.7050
12517WAT     H150774   4.501   6.075   3.437 -0.0859 -0.4395  0.6771
12517WAT     H250775   4.423   5.979   3.377 -0.2903 -0.5463  1.1044
12517WAT    EPW50776   4.482   6.031   3.375  0.6169 -0.2907 -0.7995
12518WAT      O50777   0.814   4.666   0.237 -0.1235  0.5605 -0.2907
12518WAT     H150778   0.859   4.653   0.310  0.3493 -1.3418 -0.8639
12518WAT     H250779   0.744   4.615   0.246  0.3797 -0.3932 -1.5048
12518WAT    EPW50780   0.810   4.657   0.249  0.1022 -0.1583  0.6188
12519WAT      O50781   3.658   1.324   6.065  0.0666 -0.6411 -0.0391
12519WAT     H150782   3.647   1.402   6.027 -0.1895 -0.4580  0.4135
12519WAT     H250783   3.648   1.268   5.999 -0.3498 -0.3211 -0.2486
12519WAT    EPW50784   3.655   1.327   6.049 -0.2227  0.4711  0.0126
12520WAT      O50785   6.785   2.628   6.729 -0.3255 -0.1091  0.3406
12520WAT     H150786   6.864   2.591   6.721  0.0880  0.6368  0.8434
12520WAT     H250787   6.803   2.714   6.729 -1.3316  0.1544 -1.7291
12520WAT    EPW50788   6.799   2.635   6.728 -0.2884 -0.0088 -0.3119
12521WAT      O50789   0.119   0.575   0.743 -0.0659 -0.2720 -0.3607
12521WAT     H150790   0.139   0.659   0.755  1.7809 -0.5526 -1.1647
12521WAT     H250791   0.033   0.572   0.759 -0.3925  1.9615 -1.3264
12521WAT    EPW50792   0.109   0.587   0.747 -0.4642  0.4753  0.3747
12522WAT      O50793   0.254   7.173   4.859 -0.4722  0.3911 -0.1050
12522WAT     H150794   0.307   7.189   4.926 -1.4192 -2.0656  1.3561
12522WAT     H250795   0.307   7.140   4.798  0.0828  0.6215  0.2475
12522WAT    EPW50796   0.270   7.171   4.860  0.2339  0.1843 -0.3065
12523WAT      O50797   7.633   5.407   5.814  0.0784  0.1193  0.7645
12523WAT     H150798   7.599   5.358   5.751  2.5998  0.2115 -0.8123
12523WAT     H250799   7.598   5.485   5.800 -1.6209 -0.4971  1.3735
12523WAT    EPW50800   7.623   5.411   5.802  0.7528  0.0220  0.2586
12524WAT      O50801   2.792   6.380   0.104 -0.7084 -0.0901  0.4901
12524WAT     H150802   2.850   6.411   0.161 -0.1264 -1.6920  0.8116
12524WAT     H250803   2.819   6.299   0.089 -1.6235 -0.1456 -1.0571
12524WAT    EPW50804   2.804   6.373   0.110  0.2602  0.3980  0.7418
12525WAT      O50805   6.363   5.875   3.995 -0.1493  0.3144  0.1643
12525WAT     H150806   6.421   5.882   4.061  0.4991  0.0803 -0.3672
12525WAT     H250807   6.300   5.826   4.028  0.0055  0.4836  0.7271
12525WAT    EPW50808   6.363   5.869   4.010 -0.4750 -0.3603 -0.2092
12526WAT      O50809   0.825   0.987   7.215  0.1382 -0.8116  0.6677
12526WAT     H150810   0.768   0.996   7.150 -1.3167 -2.2084  1.6854
12526WAT     H250811   0.800   0.914   7.255  2.1012 -0.9790  1.7205
12526WAT    EPW50812   0.813   0.978   7.211  0.4603 -0.0986 -0.2942
12527WAT      O50813   7.065   6.287   4.380 -0.0039 -0.3077 -0.3349
12527WAT     H150814   7.042   6.203   4.375 -0.5004 -0.1740 -0.4247
12527WAT     H250815   7.038   6.320   4.304 -1.1825  0.2453  0.2868
12527WAT    EPW50816   7.057   6.279   4.368  0.0737  0.3978 -0.3700
12528WAT      O50817   2.792   6.849   3.764  0.1363 -0.0089 -0.4206
12528WAT     H150818   2.875   6.827   3.754  0.5293  1.4108 -0.5172
12528WAT     H250819   2.757   6.781   3.807  1.7448  0.1468  1.2371
12528WAT    EPW50820   2.799   6.836   3.769 -0.0455 -0.1657  0.1821
12529WAT      O50821   5.631   3.198   6.753  0.2003  0.1954 -0.3193
12529WAT     H150822   5.661   3.128   6.711 -0.7790 -0.9804  0.8588
12529WAT     H250823   5.609   3.253   6.689  0.7975 -0.6530 -1.2724
12529WAT    EPW50824   5.632   3.196   6.738  0.1434 -0.1987 -0.4826
12530WAT      O50825   0.170   1.345   3.662  0.0110  0.4658  0.2754
12530WAT     H150826   0.255   1.352   3.683  0.2147  1.6955 -0.8562
12530WAT     H250827   0.129   1.381   3.730  0.4231  0.5193  0.5009
12530WAT    EPW50828   0.177   1.351   3.675 -0.1520  0.4308  0.4160
12531WAT      O50829   4.111   6.627   3.058 -0.2254 -0.1340  0.1201
12531WAT     H150830   4.122   6.603   3.142 -1.1481  1.6602  0.7959
12531WAT     H250831   4.028   6.654   3.055  0.0353  0.6035 -1.1789
12531WAT    EPW50832   4.100   6.627   3.070 -0.2984 -0.1120  0.2366
12532WAT      O50833   1.718   5.884   0.595  0.3023 -0.1856 -0.4155
12532WAT     H150834   1.748   5.886   0.513 -0.8962 -2.1214 -0.9609
12532WAT     H250835   1.790   5.870   0.642  1.5132  3.7373 -0.6875
12532WAT    EPW50836   1.733   5.882   0.589  0.3331 -0.1621  0.4185
12533WAT      O50837   1.712   4.179   1.499 -0.0568 -0.4030  0.4644
12533WAT     H150838   1.685   4.251   1.459  0.0632 -1.4025 -1.5642
12533WAT     H250839   1.657   4.171   1.566 -0.3658  1.3013  0.4608
12533WAT    EPW50840   1.700   4.188   1.503  0.1845  0.0793 -0.3165
12534WAT      O50841   1.303   3.086   1.233 -0.3821  0.3174 -0.1600
12534WAT     H150842   1.278   3.009   1.264 -3.1682  1.2259  0.1337
12534WAT     H250843   1.262   3.093   1.157  0.5100  1.1729 -0.5959
12534WAT    EPW50844   1.294   3.076   1.226 -0.0289  0.6688 -0.3342
12535WAT      O50845   0.048   6.095   3.963  0.2257  0.3768  0.3785
12535WAT     H150846   0.113   6.058   3.920  0.5563  0.5022  0.7644
12535WAT     H250847   0.033   6.169   3.920  1.3163  1.0594  1.1327
12535WAT    EPW50848   0.055   6.101   3.951 -0.1886 -0.5516  0.2248
12536WAT      O50849   0.587   4.424   4.693 -0.6320  0.5402  0.1144
12536WAT     H150850   0.606   4.503   4.726 -0.2605  0.8897 -0.8931
12536WAT     H250851   0.541   4.442   4.621  1.2238 -0.0468 -1.2903
12536WAT    EPW50852   0.583   4.438   4.688 -0.3412  0.2326 -0.1050
12537WAT      O50853   7.434   6.226   2.969 -0.0254 -0.2665  0.4458
12537WAT     H150854   7.489   6.197   3.030 -0.0441 -0.0059  0.5874
12537WAT     H250855   7.452   6.177   2.899  0.3693 -0.1936  0.4983
12537WAT    EPW50856   7.445   6.214   2.967 -0.2039  0.2228 -0.2313
12538WAT      O50857   7.511   2.616   3.505  0.2768  0.1284 -0.1372
12538WAT     H150858   7.484   2.539   3.473  0.0691  0.4579 -0.7739
12538WAT     H250859   7.560   2.649   3.441  0.9451  0.2214  0.4093
12538WAT    EPW50860   7.515   2.610   3.491  0.3748 -0.2694  0.2347
12539WAT      O50861   0.594   3.118   4.270 -0.5565 -0.2328 -0.1408
12539WAT     H150862   0.599   3.134   4.184 -0.3497 -0.2642 -0.1360
12539WAT     H250863   0.558   3.039   4.274  1.0348 -1.0062 -0.2661
12539WAT    EPW50864   0.590   3.109   4.258 -0.3465 -0.0969 -0.3465
12540WAT      O50865   2.509   1.013   2.583  0.2609  0.6695  0.1755
12540WAT     H150866   2.439   1.043   2.542  0.9154  1.5151 -0.3617
12540WAT     H250867   2.573   1.021   2.524  1.3268  2.3826  1.4551
12540WAT    EPW50868   2.508   1.018   2.568 -0.0723  0.6383  0.2534
12541WAT      O50869   5.261   3.174   6.644 -0.4160 -0.1225 -0.1494
12541WAT     H150870   5.324   3.177   6.583  0.0144 -0.7516  0.2452
12541WAT     H250871   5.286   3.234   6.702 -0.3992 -0.0779 -0.2031
12541WAT    EPW50872   5.274   3.183   6.644 -0.8020  0.0569 -0.0946
12542WAT      O50873   4.384   6.028   6.236  0.1246  0.0996 -0.3059
12542WAT     H150874   4.374   5.959   6.289 -1.3139  1.5284  1.4268
12542WAT     H250875   4.453   6.070   6.271  2.0932 -1.2063 -2.3501
12542WAT    EPW50876   4.393   6.024   6.249  0.3110 -0.6859  0.1345
12543WAT      O50877   6.009   5.976   3.463 -0.3746  0.2112  0.3868
12543WAT     H150878   5.999   6.052   3.504 -3.3260 -0.2921  0.8685
12543WAT     H250879   5.932   5.964   3.423  0.2430 -2.1525 -0.2976
12543WAT    EPW50880   5.996   5.985   3.463 -0.0803 -0.0746 -0.4077
12544WAT      O50881   6.559   5.260   1.231  0.0660 -0.2099 -0.3388
12544WAT     H150882   6.627   5.313   1.245  0.6916 -1.5691  2.9238
12544WAT     H250883   6.597   5.182   1.220 -0.9179 -0.5633 -1.3678
12544WAT    EPW50884   6.575   5.256   1.231  0.4418  0.3974  0.1874
12545WAT      O50885   3.767   6.297   4.295 -0.5062 -0.2004 -0.0322
12545WAT     H150886   3.830   6.346   4.261 -2.0549  1.8027 -0.1998
12545WAT     H250887   3.769   6.224   4.247  1.2108  0.0927 -0.4543
12545WAT    EPW50888   3.776   6.293   4.283 -0.8241 -0.2564 -0.0320
12546WAT      O50889   6.621   2.455   7.337 -0.0219 -0.4765  0.7480
12546WAT     H150890   6.565   2.463   7.402 -1.0501 -0.1099 -0.1596
12546WAT     H250891   6.571   2.439   7.268  1.0424 -0.9246  0.0442
12546WAT    EPW50892   6.606   2.454   7.336  0.3902  0.3068  0.0615
12547WAT      O50893   3.365   6.159   2.714  0.2269  0.3100 -0.1294
12547WAT     H150894   3.419   6.171   2.646 -0.6859  2.4560 -0.5594
12547WAT     H250895   3.404   6.201   2.779  0.5638 -0.8142  0.4192
12547WAT    EPW50896   3.379   6.167   2.713 -0.1429  0.1379  0.2419
12548WAT      O50897   3.782   5.093   7.196  0.4538  0.5020  0.0917
12548WAT     H150898   3.729   5.062   7.133 -1.2044 -0.1922  1.7339
12548WAT     H250899   3.773   5.035   7.260  1.9801  1.2730  1.0507
12548WAT    EPW50900   3.772   5.079   7.196 -0.1683  0.1062 -0.1145
12549WAT      O50901   5.575   6.351   2.147 -0.2682  0.3902  0.3275
12549WAT     H150902   5.493   6.379   2.161 -0.2800  0.9635 -0.7951
12549WAT     H250903   5.619   6.424   2.129  0.2329 -0.0384 -0.2367
12549WAT    EPW50904   5.569   6.366   2.146  0.5563 -0.8348 -0.2329
12550WAT      O50905   0.044   4.213   5.117  0.1771 -0.4672 -0.8242
12550WAT     H150906  -0.012   4.279   5.114  1.8255  0.9603 -2.2037
12550WAT     H250907   0.096   4.231   5.185  0.4443 -0.4960 -1.0163
12550WAT    EPW50908   0.044   4.225   5.127  0.5669 -0.3580 -0.4321
12551WAT      O50909   5.823   3.154   5.193  0.4186  0.4021  0.3384
12551WAT     H150910   5.751   3.181   5.151  0.2937 -0.9956 -0.4140
12551WAT     H250911   5.791   3.105   5.258  0.6501 -0.8570 -0.4475
12551WAT    EPW50912   5.808   3.151   5.196 -0.0906  0.2101 -0.0567
12552WAT      O50913   1.412   4.729   3.194 -0.5845  0.2868  0.6690
12552WAT     H150914   1.352   4.709   3.253 -0.7889  2.0065  1.1036
12552WAT     H250915   1.382   4.803   3.158 -0.8148 -1.0381 -2.1127
12552WAT    EPW50916   1.399   4.737   3.197  0.6447  0.4849  0.1714
12553WAT      O50917   5.735   1.620   1.630 -0.0948  0.2223  0.0008
12553WAT     H150918   5.672   1.627   1.569 -0.2515 -0.5265  0.0737
12553WAT     H250919   5.764   1.702   1.637  0.3590  0.2351 -1.5505
12553WAT    EPW50920   5.730   1.634   1.622 -0.2055 -0.0344  0.3030
12554WAT      O50921   1.351   3.998   6.120  0.0732  0.4141  0.7069
12554WAT     H150922   1.391   4.074   6.137  1.3891 -0.2834  0.8480
12554WAT     H250923   1.279   4.002   6.169  1.2891  0.5892  2.6034
12554WAT    EPW50924   1.347   4.010   6.130  0.3574  0.0274 -0.0823
12555WAT      O50925   1.029   2.620   5.152 -0.5379 -0.2276  0.0815
12555WAT     H150926   1.011   2.610   5.237 -1.0959 -0.1608 -0.0223
12555WAT     H250927   0.957   2.658   5.120  0.0364  0.6137 -0.2502
12555WAT    EPW50928   1.016   2.624   5.160  0.1111 -0.3337  0.5359
12556WAT      O50929   2.911   4.433   6.278 -0.3570  0.0453 -0.4496
12556WAT     H150930   2.869   4.380   6.222  0.9097  0.0460 -1.4519
12556WAT     H250931   2.952   4.378   6.331  0.8217 -0.0235 -1.3862
12556WAT    EPW50932   2.911   4.417   6.277  0.6545 -0.2127  0.7204
12557WAT      O50933   0.698   3.628   5.292  0.9083 -0.0005  0.4459
12557WAT     H150934   0.721   3.574   5.228  0.7585  0.5074 -0.0395
12557WAT     H250935   0.695   3.706   5.253  0.4989  0.2625  0.9963
12557WAT    EPW50936   0.701   3.632   5.277  0.3787  0.0017  0.4265
12558WAT      O50937   2.369   4.570   1.372  0.0900 -0.0726 -0.7209
12558WAT     H150938   2.345   4.631   1.430  0.5998  0.0577 -0.6394
12558WAT     H250939   2.360   4.495   1.415  0.5288  0.0287 -0.4416
12558WAT    EPW50940   2.364   4.568   1.387 -0.3850 -0.0504 -0.1703
12559WAT      O50941   4.438   1.154   7.499 -0.1317 -0.3135 -0.1562
12559WAT     H150942   4.492   1.159   7.567 -0.4561 -1.6658  0.2265
12559WAT     H250943   4.373   1.208   7.520  0.7709  0.8884 -0.3687
12559WAT    EPW50944   4.437   1.163   7.512 -0.0639  0.5141 -0.0756
12560WAT      O50945   1.719   6.175   6.909 -0.3589  0.0551 -0.2610
12560WAT     H150946   1.801   6.149   6.900 -0.2904  0.6615 -1.6361
12560WAT     H250947   1.675   6.101   6.919  0.0249 -0.5415 -2.5109
12560WAT    EPW50948   1.724   6.160   6.909  0.3766 -0.1903 -0.0149
12561WAT      O50949   1.656   5.966   7.343 -0.3346 -0.2590  0.5347
12561WAT     H150950   1.733   6.002   7.322  0.0189 -0.2425  1.7758
12561WAT     H250951   1.675   5.881   7.351 -0.1504 -0.1004  2.0240
12561WAT    EPW50952   1.670   5.959   7.341  0.1999  0.8910 -0.3058
12562WAT      O50953   1.241   6.799   3.935 -0.2461  0.5614 -0.2525
12562WAT     H150954   1.161   6.767   3.926  0.5357 -1.7860  0.4098
12562WAT     H250955   1.291   6.741   3.893  1.1341  1.9381 -0.6232
12562WAT    EPW50956   1.237   6.786   3.927 -0.0363  0.3599  0.1411
12563WAT      O50957   6.487   0.156   4.108  0.1167 -0.7139  0.2805
12563WAT     H150958   6.444   0.223   4.144 -0.0402 -1.6695  1.9185
12563WAT     H250959   6.437   0.134   4.040  0.1143  0.7394 -0.2226
12563WAT    EPW50960   6.473   0.163   4.103  0.1994 -0.0760  0.1200
12564WAT      O50961   2.893   2.061   3.516  0.4038 -0.1416  0.6252
12564WAT     H150962   2.964   2.089   3.559  2.6391  0.6223 -3.1734
12564WAT     H250963   2.838   2.129   3.522  2.3732  1.7515 -1.1385
12564WAT    EPW50964   2.895   2.075   3.524 -0.5438 -0.0631  0.4180
12565WAT      O50965   1.090   0.223   1.723 -1.1141  0.1914  0.2295
12565WAT     H150966   1.009   0.251   1.706 -2.1095 -1.6420  1.7081
12565WAT     H250967   1.081   0.137   1.735  0.6436  0.2395  2.6636
12565WAT    EPW50968   1.077   0.215   1.722 -0.1472 -1.0797  0.1008
12566WAT      O50969   4.430   4.241   0.291  0.2106 -0.2799 -0.7856
12566WAT     H150970   4.346   4.262   0.287 -0.0339 -0.4591  1.6107
12566WAT     H250971   4.439   4.178   0.231 -1.1923  0.2041 -1.5357
12566WAT    EPW50972   4.419   4.235   0.282  0.4542  0.4474  0.1823
12567WAT      O50973   4.660   6.628   0.715  0.0752 -0.2237 -0.3278
12567WAT     H150974   4.626   6.700   0.750  1.2275  1.2880 -2.1688
12567WAT     H250975   4.746   6.643   0.716  0.3261 -1.4155 -1.0893
12567WAT    EPW50976   4.668   6.641   0.721 -0.6395 -0.2849 -0.1280
12568WAT      O50977   5.728   6.357   3.657 -0.0478 -0.6479  0.1470
12568WAT     H150978   5.653   6.360   3.702 -0.3316 -1.2111 -0.2843
12568WAT     H250979   5.758   6.277   3.672  0.6942 -0.2969  0.6513
12568WAT    EPW50980   5.721   6.346   3.666 -0.5676  0.2006 -0.5077
12569WAT      O50981   6.180   6.202   6.688  0.0510  0.0929  0.2024
12569WAT     H150982   6.152   6.264   6.634  1.5477 -0.0336 -0.7964
12569WAT     H250983   6.164   6.128   6.643  1.3225 -0.0125 -0.1228
12569WAT    EPW50984   6.174   6.200   6.673  0.0698 -0.0035  0.6949
12570WAT      O50985   6.038   0.309   3.569 -0.2590 -0.5293  0.0575
12570WAT     H150986   6.068   0.229   3.551  1.1221  0.0619 -0.4435
12570WAT     H250987   6.080   0.331   3.642 -0.6404 -0.2573  0.1978
12570WAT    EPW50988   6.049   0.300   3.577 -0.0084 -0.0026 -0.5134
12571WAT      O50989   4.759   5.834   2.379 -0.0342  0.1821 -0.0545
12571WAT     H150990   4.785   5.796   2.453 -1.0607 -0.4058  0.0256
12571WAT     H250991   4.700   5.778   2.347  2.4124 -1.0675 -2.8236
12571WAT    EPW50992   4.754   5.820   2.385 -0.6013  0.5511 -0.2519
12572WAT      O50993   2.974   3.352   2.497 -0.0563 -0.5417  0.2572
12572WAT     H150994   2.941   3.396   2.430 -0.7647 -0.9719  0.3138
12572WAT     H250995   2.955   3.269   2.478 -0.0435 -0.6893  0.8700
12572WAT    EPW50996   2.966   3.346   2.484 -0.3047 -0.1381 -0.2868
12573WAT      O50997   1.441   3.994   2.894 -1.3393  0.0579 -0.0104
12573WAT     H150998   1.398   4.061   2.856 -0.4329 -0.0315 -1.2402
12573WAT     H250999   1.383   3.964   2.952 -2.8743  0.0943 -1.4329
12573WAT    EPW51000   1.426   4.000   2.897  0.1377  0.1529 -0.2309
12574WAT      O51001   2.536   3.470   6.938 -0.4877 -0.6426 -0.2715
12574WAT     H151002   2.514   3.554   6.936  0.7544 -0.3046 -1.8763
12574WAT     H251003   2.502   3.438   6.864 -0.7244 -1.4987  0.1921
12574WAT    EPW51004   2.528   3.477   6.927 -0.6196  0.2403  0.1678
12575WAT      O51005   3.345   5.010   6.071  0.1329 -0.0093 -0.3013
12575WAT     H151006   3.311   4.940   6.032 -0.8487 -1.0179  2.1585
12575WAT     H251007   3.423   4.982   6.098  0.9061  0.7524 -1.6697
12575WAT    EPW51008   3.352   4.996   6.069 -0.0394  0.1512 -0.0048
12576WAT      O51009   1.108   2.860   0.914  0.2342 -0.0012 -0.0821
12576WAT     H151010   1.035   2.857   0.867  1.3206 -0.9350 -1.7842
12576WAT     H251011   1.107   2.784   0.958  0.9888 -0.8575 -1.4605
12576WAT    EPW51012   1.097   2.848   0.914  0.3945 -0.6527 -0.6145
12577WAT      O51013   6.224   7.564   3.024 -0.0706 -0.1546  0.0136
12577WAT     H151014   6.288   7.602   3.071 -0.8646 -0.6250  1.5373
12577WAT     H251015   6.236   7.479   3.039 -1.0955 -0.2414  0.3685
12577WAT    EPW51016   6.235   7.557   3.033 -0.2301  0.2757 -0.2280
12578WAT      O51017   1.752   7.279   4.590 -0.0227 -0.6836  0.7467
12578WAT     H151018   1.669   7.257   4.574 -0.2923 -0.4032  1.7044
12578WAT     H251019   1.751   7.366   4.585  0.5537 -0.7312 -0.7454
12578WAT    EPW51020   1.740   7.288   4.587 -0.2415 -0.7858 -0.4285
12579WAT      O51021   4.709   0.746   3.034 -0.0789  0.3502 -0.2750
12579WAT     H151022   4.626   0.774   3.036 -0.1083  0.5229 -2.0720
12579WAT     H251023   4.716   0.709   2.955  1.1564 -0.9774  0.4203
12579WAT    EPW51024   4.697   0.745   3.023  0.9552 -0.2992 -0.1165
12580WAT      O51025   4.767   0.408   7.509 -0.5220 -0.6384 -0.0196
12580WAT     H151026   4.792   0.424   7.591  0.2262  0.7560 -0.4897
12580WAT     H251027   4.812   0.337   7.488 -0.4618 -0.8129  0.6542
12580WAT    EPW51028   4.777   0.400   7.518  0.6407  0.3577  0.3075
12581WAT      O51029   6.394   0.531   4.959  0.1448  0.0135 -0.2239
12581WAT     H151030   6.451   0.556   4.898  0.4276 -1.5297 -0.6204
12581WAT     H251031   6.318   0.558   4.927  0.4251  0.3013 -0.6666
12581WAT    EPW51032   6.391   0.539   4.945 -0.0553  0.0407 -0.0895
12582WAT      O51033   2.162   1.257   3.830 -0.1108  0.8313  0.7301
12582WAT     H151034   2.243   1.287   3.830  0.4042 -0.4466  2.0395
12582WAT     H251035   2.137   1.264   3.746  2.7196 -2.2572 -0.5867
12582WAT    EPW51036   2.170   1.263   3.818 -0.0480 -0.1140  0.2933
12583WAT      O51037   4.914   5.588   0.920 -0.8036 -0.5098  0.1387
12583WAT     H151038   4.908   5.533   0.987 -1.9279  0.1374  0.5991
12583WAT     H251039   4.969   5.649   0.949 -1.7909  0.1185  0.7593
12583WAT    EPW51040   4.921   5.589   0.934  0.1355 -0.0671  0.3182
12584WAT      O51041   7.178   1.365   0.667  0.2237 -0.1353 -0.5329
12584WAT     H151042   7.101   1.404   0.680  0.5203  0.1891  0.3393
12584WAT     H251043   7.157   1.293   0.623 -0.7383 -0.6921  0.7651
12584WAT    EPW51044   7.163   1.360   0.663  0.1613  0.6567  0.5781
12585WAT      O51045   6.587   1.480   4.665  0.9599  0.4214 -0.2378
12585WAT     H151046   6.649   1.534   4.635  1.7520  0.4810  1.4290
12585WAT     H251047   6.514   1.509   4.626  1.3425  2.7608  0.6562
12585WAT    EPW51048   6.585   1.492   4.655 -0.2127 -0.2822  0.1647
12586WAT      O51049   3.043   3.819   2.591 -0.0333  0.7258 -0.0407
12586WAT     H151050   3.120   3.827   2.552  0.3119  2.0305  0.8239
12586WAT     H251051   3.061   3.772   2.663 -0.9098 -2.8954 -1.9588
12586WAT    EPW51052   3.057   3.813   2.596 -0.0175  0.6818  0.1380
12587WAT      O51053   5.885   7.433   5.171 -0.3035 -0.2883 -0.7099
12587WAT     H151054   5.953   7.484   5.151  0.2667 -1.2330 -1.2901
12587WAT     H251055   5.887   7.428   5.258 -0.0766  0.2810 -0.6803
12587WAT    EPW51056   5.896   7.440   5.181 -0.3276 -0.6670  0.0031
12588WAT      O51057   6.118   5.460   4.254 -0.0977  0.0279 -0.1605
12588WAT     H151058   6.133   5.443   4.170  0.2156  0.1880 -0.1395
12588WAT     H251059   6.041   5.421   4.270 -1.0426  1.4465 -0.9701
12588WAT    EPW51060   6.109   5.452   4.244 -0.0118 -0.2157 -0.0044
12589WAT      O51061   2.886   3.718   2.270  0.0751  0.5878  0.0777
12589WAT     H151062   2.937   3.709   2.200  1.0980  0.0271  0.8659
12589WAT     H251063   2.943   3.731   2.335 -0.6179 -1.6043  1.2493
12589WAT    EPW51064   2.902   3.718   2.269 -0.5944 -0.3842 -0.5346
12590WAT      O51065   5.332   3.035   4.775  0.4694  0.1316  0.7447
12590WAT     H151066   5.259   2.995   4.800  0.3155  0.5991  1.0582
12590WAT     H251067   5.351   2.998   4.698 -0.3221  0.3000  0.4618
12590WAT    EPW51068   5.324   3.024   4.767 -0.6475  0.5642  0.2173
12591WAT      O51069   4.019   6.587   6.612 -0.0996 -0.3303  1.0134
12591WAT     H151070   3.994   6.642   6.675 -1.7774  1.4325 -1.0576
12591WAT     H251071   3.947   6.542   6.593  0.5430 -1.2893  0.7242
12591WAT    EPW51072   4.005   6.588   6.619 -0.0975 -0.4821  0.5256
12592WAT      O51073   1.000   4.764   3.814 -0.1703 -0.1835 -0.6004
12592WAT     H151074   1.068   4.775   3.761  0.3544 -0.5878 -0.0328
12592WAT     H251075   1.023   4.694   3.862 -0.2613  0.6658  0.7257
12592WAT    EPW51076   1.013   4.755   3.813 -0.2390 -0.0201  0.2905
12593WAT      O51077   0.690   4.645   4.004  0.4091 -0.3075  0.2952
12593WAT     H151078   0.703   4.667   3.921  0.6924  0.0719  0.4339
12593WAT     H251079   0.767   4.663   4.042 -0.1545  0.9031  0.9206
12593WAT    EPW51080   0.703   4.651   3.998 -0.4609 -0.0987  0.3541
12594WAT      O51081   2.383   2.591   6.199  0.2948 -0.1535  0.3005
12594WAT     H151082   2.452   2.638   6.223  0.1483 -0.6235  1.7166
12594WAT     H251083   2.346   2.640   6.136  1.2690  0.6342  0.3179
12594WAT    EPW51084   2.388   2.605   6.193  0.0092  0.3685  0.2476
12595WAT      O51085   5.466   3.076   0.812 -0.0500  0.0323 -0.1427
12595WAT     H151086   5.428   3.135   0.760  1.2058  3.4051  2.3949
12595WAT     H251087   5.539   3.116   0.838  0.9837 -2.7539  1.7388
12595WAT    EPW51088   5.471   3.091   0.808  0.0118  0.2071 -0.2501
12596WAT      O51089   4.674   6.749   6.825  0.1422  0.1283 -0.1244
12596WAT     H151090   4.759   6.745   6.847  0.1493  0.9234  0.0390
12596WAT     H251091   4.642   6.806   6.882 -0.5091 -0.1652 -0.1927
12596WAT    EPW51092   4.682   6.757   6.837 -0.0090  0.2663 -0.8807
12597WAT      O51093   7.600   1.969   3.436  0.2824  0.2622  0.1919
12597WAT     H151094   7.529   1.997   3.394  0.4308 -1.4580 -1.3296
12597WAT     H251095   7.570   1.903   3.485  0.8146 -0.6306 -0.6414
12597WAT    EPW51096   7.585   1.963   3.437 -0.1829 -0.7864 -0.1175
12598WAT      O51097   4.507   6.052   4.196 -0.2573  0.4345 -0.3773
12598WAT     H151098   4.576   6.106   4.194  0.2978 -0.2437 -2.2982
12598WAT     H251099   4.539   5.978   4.162 -1.9478  0.1539 -1.4662
12598WAT    EPW51100   4.522   6.049   4.191 -0.5374  0.3483  0.1857
12599WAT      O51101   7.400   6.470   2.045 -0.0905  0.0177  0.0020
12599WAT     H151102   7.435   6.403   2.087  1.2707  1.3101  1.0266
12599WAT     H251103   7.377   6.525   2.108  0.6969  1.3905 -0.8524
12599WAT    EPW51104   7.402   6.468   2.060  0.4206 -0.1938  0.1037
12600WAT      O51105   6.063   5.978   6.548 -0.2024 -0.8029 -0.0823
12600WAT     H151106   6.110   5.919   6.504 -0.0602  0.0443 -1.1187
12600WAT     H251107   5.989   5.935   6.565 -0.3981 -1.0869 -1.4696
12600WAT    EPW51108   6.059   5.963   6.544 -0.0203  0.2959 -0.0074
12601WAT      O51109   5.164   2.405   1.410 -0.0023  0.1600 -0.2392
12601WAT     H151110   5.118   2.337   1.439 -1.0490  1.1854  0.5997
12601WAT     H251111   5.207   2.433   1.481  0.5646  0.2757 -0.6146
12601WAT    EPW51112   5.164   2.399   1.425  0.1757 -0.0034  0.5649
12602WAT      O51113   3.369   0.302   4.549 -0.4622  0.8014 -0.6829
12602WAT     H151114   3.343   0.295   4.466  2.1560  0.1465 -1.5172
12602WAT     H251115   3.434   0.359   4.546  0.5759 -0.2392  0.6796
12602WAT    EPW51116   3.374   0.309   4.536 -0.2715 -0.7225 -0.5762
12603WAT      O51117   6.463   3.268   2.883 -0.1786 -0.0286  0.2281
12603WAT     H151118   6.540   3.228   2.897 -0.5306 -1.3487 -1.3137
12603WAT     H251119   6.451   3.315   2.955  2.2845  0.5761  0.3496
12603WAT    EPW51120   6.473   3.269   2.896  0.4150 -0.0584  0.0789
12604WAT      O51121   7.241   4.248   7.023 -0.3237 -0.0329  0.5441
12604WAT     H151122   7.321   4.257   6.989 -0.1156 -2.2563  0.3059
12604WAT     H251123   7.192   4.303   6.975  0.7393  0.0989 -0.4406
12604WAT    EPW51124   7.245   4.258   7.011 -0.3794  0.3571  0.2387
12605WAT      O51125   5.639   6.236   7.191  0.2601  0.5937 -0.1930
12605WAT     H151126   5.594   6.200   7.126  1.3531  0.7225 -1.0471
12605WAT     H251127   5.646   6.172   7.250 -1.1798  0.6355  0.0437
12605WAT    EPW51128   5.634   6.222   7.190 -0.0775 -0.4683 -0.7046
12606WAT      O51129   1.999   1.622   2.423  0.6294  0.3386 -0.0067
12606WAT     H151130   1.975   1.567   2.360  0.2304  0.3506  0.1327
12606WAT     H251131   2.060   1.578   2.467  0.0124 -0.1601  0.3611
12606WAT    EPW51132   2.005   1.607   2.420 -0.5148 -0.2836  0.8836
12607WAT      O51133   1.552   7.500   3.149  0.0808  0.3743  0.3513
12607WAT     H151134   1.586   7.577   3.125 -0.2649 -0.0662 -1.7098
12607WAT     H251135   1.474   7.522   3.181 -0.3714  0.8487 -1.0176
12607WAT    EPW51136   1.545   7.515   3.150  0.7513  0.0847 -0.4467
12608WAT      O51137   2.441   6.664   0.436  0.0718  0.1356 -0.3033
12608WAT     H151138   2.399   6.665   0.513  0.2163  0.2385 -0.2267
12608WAT     H251139   2.514   6.620   0.453 -0.9025 -1.8365 -0.9064
12608WAT    EPW51140   2.445   6.658   0.450  0.3400 -0.0757  0.2577
12609WAT      O51141   5.350   5.436   5.345 -0.2764  0.1832  0.5702
12609WAT     H151142   5.271   5.398   5.343 -1.0080  1.5443  1.5832
12609WAT     H251143   5.337   5.507   5.394  1.0576  1.6765 -1.0993
12609WAT    EPW51144   5.336   5.441   5.352  0.2829 -1.1604 -0.1727
12610WAT      O51145   6.943   4.896   6.481 -0.2071 -0.1512  0.4281
12610WAT     H151146   6.914   4.825   6.440  0.1533 -0.5361  0.8261
12610WAT     H251147   6.877   4.919   6.532 -0.2637 -0.2967  0.4216
12610WAT    EPW51148   6.929   4.889   6.482 -0.8096  0.0869 -0.6901
12611WAT      O51149   2.877   1.089   4.074  0.1161 -0.5386  0.0807
12611WAT     H151150   2.964   1.084   4.072  0.1620  0.2946 -0.5068
12611WAT     H251151   2.853   1.051   4.000  0.0332  0.0000 -0.1751
12611WAT    EPW51152   2.886   1.083   4.063 -0.5708  0.3227  0.1192
12612WAT      O51153   1.087   4.986   0.800  0.0837 -0.1937 -0.2730
12612WAT     H151154   1.131   4.912   0.813  1.4290  0.3012 -1.7391
12612WAT     H251155   1.006   4.959   0.782 -0.1819 -1.1444  1.9843
12612WAT    EPW51156   1.081   4.971   0.799 -0.0324 -0.5624  0.6386
12613WAT      O51157   2.371   5.671   0.045  0.0253 -0.2437  0.2102
12613WAT     H151158   2.408   5.717  -0.018 -1.1349 -0.0374 -0.3394
12613WAT     H251159   2.436   5.619   0.073  0.3502 -0.9617 -1.7285
12613WAT    EPW51160   2.386   5.670   0.040 -0.0257  0.0464 -0.1475
12614WAT      O51161   2.147   0.528   3.112 -0.1963  0.4911 -0.0519
12614WAT     H151162   2.181   0.605   3.089 -1.0045  0.9658  0.3152
12614WAT     H251163   2.211   0.472   3.092  0.8678  1.3666  0.7472
12614WAT    EPW51164   2.162   0.531   3.106  0.4096 -0.6300 -0.0671
12615WAT      O51165   3.144   7.013   2.223 -0.0933  0.4235 -0.0461
12615WAT     H151166   3.176   6.937   2.253 -2.5855 -1.0534 -0.8746
12615WAT     H251167   3.129   7.058   2.296  3.0171  0.9386  0.4151
12615WAT    EPW51168   3.147   7.008   2.238 -0.0499 -0.6052  0.0021
12616WAT      O51169   2.073   5.493   7.157  0.1675 -0.3718 -0.0975
12616WAT     H151170   2.103   5.565   7.117 -2.9115  1.3403  0.4253
12616WAT     H251171   2.082   5.431   7.096  2.4621  0.4699 -0.7258
12616WAT    EPW51172   2.079   5.494   7.142 -0.0623 -0.1229 -0.0332
12617WAT      O51173   2.624   2.122   7.520  0.0989  0.1948  0.0206
12617WAT     H151174   2.618   2.059   7.579 -1.1079  0.3017  0.0308
12617WAT     H251175   2.563   2.101   7.461  1.3094  0.0508 -1.2344
12617WAT    EPW51176   2.614   2.110   7.520  0.4899  0.1419 -0.4028
12618WAT      O51177   5.432   1.421   1.201  0.1939  0.1645  0.2073
12618WAT     H151178   5.368   1.436   1.258 -0.0564 -0.0378 -0.0179
12618WAT     H251179   5.488   1.371   1.246  0.0660  0.1200  0.3167
12618WAT    EPW51180   5.431   1.416   1.216  0.6375  0.3148 -0.2612
12619WAT      O51181   3.184   1.138   2.281 -0.4877  0.6370 -0.4993
12619WAT     H151182   3.263   1.117   2.312 -1.1330 -2.0051 -0.3655
12619WAT     H251183   3.148   1.185   2.345  0.1615 -0.1684  0.4966
12619WAT    EPW51184   3.190   1.142   2.295  0.7342 -0.2157 -0.4092
12620WAT      O51185   2.740   0.498   5.097  0.1622 -0.8312 -0.5732
12620WAT     H151186   2.757   0.434   5.041  0.6742  0.1595 -1.5839
12620WAT     H251187   2.762   0.570   5.054 -0.0173  0.0122  0.6779
12620WAT    EPW51188   2.746   0.499   5.083  0.4633  0.2315  0.0045
12621WAT      O51189   4.720   0.096   1.849  0.0984 -0.3683 -0.7768
12621WAT     H151190   4.697   0.024   1.807  0.4187  0.8817 -3.3035
12621WAT     H251191   4.793   0.074   1.892  1.2755 -1.1414 -3.0161
12621WAT    EPW51192   4.727   0.082   1.849 -0.3092  0.0073  0.3022
12622WAT      O51193   7.523   6.237   4.618 -0.2586 -0.3670  0.3001
12622WAT     H151194   7.463   6.197   4.666  0.1088 -0.4473  0.7007
12622WAT     H251195   7.494   6.227   4.536 -0.1579 -1.5037  0.3801
12622WAT    EPW51196   7.510   6.229   4.613 -0.2490 -0.2076  0.3054
12623WAT      O51197   2.564   5.710   1.801 -0.2960  0.5859  0.3994
12623WAT     H151198   2.489   5.667   1.787  0.8899 -1.6232  0.4298
12623WAT     H251199   2.562   5.773   1.741 -1.9332  0.2472  0.0361
12623WAT    EPW51200   2.553   5.713   1.790 -0.1815 -0.4237 -0.3488
12624WAT      O51201   3.439   6.557   3.762  0.1418  0.1824 -0.1380
12624WAT     H151202   3.509   6.522   3.800 -0.2173  0.3197  0.6769
12624WAT     H251203   3.411   6.616   3.821 -2.0367 -1.5100  0.6529
12624WAT    EPW51204   3.445   6.561   3.777 -0.3152 -0.2292 -0.2227
12625WAT      O51205   1.352   1.230   6.184 -0.3411  0.0293  0.0277
12625WAT     H151206   1.333   1.150   6.154  2.3951  0.3084 -3.0724
12625WAT     H251207   1.274   1.264   6.203 -1.7042 -2.8681  0.2195
12625WAT    EPW51208   1.338   1.223   6.183 -0.3090  0.4619  0.2358
12626WAT      O51209   1.331   2.446   7.352 -0.0379  0.4798 -0.0980
12626WAT     H151210   1.316   2.360   7.359 -0.1908  0.4386 -0.8655
12626WAT     H251211   1.322   2.461   7.267 -1.1872  1.4773  0.1757
12626WAT    EPW51212   1.327   2.435   7.340  0.1302 -0.1139  0.1412
12627WAT      O51213   2.775   3.743   6.373  0.0962 -0.0230  0.5813
12627WAT     H151214   2.817   3.719   6.301  0.4187  2.2175 -0.0342
12627WAT     H251215   2.691   3.728   6.353  0.3354 -2.1957  0.9134
12627WAT    EPW51216   2.769   3.737   6.359  0.9281 -0.0249  0.4500
12628WAT      O51217   3.107   6.453   2.623  0.2975  0.2097 -0.4895
12628WAT     H151218   3.144   6.392   2.573 -0.3883 -0.2441 -0.4639
12628WAT     H251219   3.100   6.413   2.701  0.4460  0.5581 -0.2958
12628WAT    EPW51220   3.112   6.438   2.627  0.1256  0.0999 -0.0803
12629WAT      O51221   4.592   6.718   1.591  0.5475  0.0357 -0.6931
12629WAT     H151222   4.515   6.753   1.613 -0.2656 -0.9941 -1.7366
12629WAT     H251223   4.624   6.689   1.667  0.0380  0.7389 -0.2014
12629WAT    EPW51224   4.585   6.719   1.605  0.0199  0.2905  0.0441
12630WAT      O51225   1.899   0.870   6.191 -0.0484  0.3322 -0.0795
12630WAT     H151226   1.929   0.850   6.271 -1.7359 -1.7400  0.1399
12630WAT     H251227   1.958   0.836   6.137  0.0207 -0.1911  0.3187
12630WAT    EPW51228   1.912   0.862   6.195  0.1876  0.2431 -0.3160
12631WAT      O51229   6.176   5.818   0.740  0.5277 -0.1006 -0.0963
12631WAT     H151230   6.247   5.869   0.740 -0.0878  0.8258  1.9419
12631WAT     H251231   6.206   5.743   0.707  1.7100  1.1736 -2.1773
12631WAT    EPW51232   6.191   5.814   0.735  0.0510  0.1256  0.1628
12632WAT      O51233   1.050   0.037   4.054 -0.0466  0.0171 -0.4060
12632WAT     H151234   0.966   0.021   4.036 -0.2369 -1.5532  1.4923
12632WAT     H251235   1.053   0.034   4.141  2.0238 -0.2216 -0.4369
12632WAT    EPW51236   1.038   0.034   4.064 -0.2688 -0.5707 -0.1526
12633WAT      O51237   2.848   1.464   3.441 -0.3138 -0.0405 -0.1284
12633WAT     H151238   2.795   1.444   3.374 -1.5803  0.9974  0.5209
12633WAT     H251239   2.926   1.472   3.404 -0.7173 -0.9591 -1.2359
12633WAT    EPW51240   2.852   1.462   3.426 -0.2681 -0.2336  0.1669
12634WAT      O51241   5.426   5.067   4.885  0.2456 -0.1589 -0.6189
12634WAT     H151242   5.506   5.101   4.890  1.4326 -2.6005 -1.6578
12634WAT     H251243   5.390   5.110   4.818  0.6856  0.8842 -0.2127
12634WAT    EPW51244   5.433   5.078   4.876  0.1759 -0.3084 -0.2334
12635WAT      O51245   4.846   7.427   7.126 -0.2622 -0.5157  0.5891
12635WAT     H151246   4.792   7.463   7.067  0.8856 -2.1025 -1.5716
12635WAT     H251247   4.908   7.487   7.136  0.9280 -1.1733 -1.9441
12635WAT    EPW51248   4.847   7.441   7.119 -0.0218 -0.1220  0.3086
12636WAT      O51249   4.574   3.919   1.993  0.7697  0.4523  0.2504
12636WAT     H151250   4.495   3.890   2.017  0.1406  0.0752 -1.9821
12636WAT     H251251   4.611   3.942   2.068  0.1889 -3.2890  1.9209
12636WAT    EPW51252   4.568   3.918   2.008  0.2767 -0.3094  0.2406
12637WAT      O51253   2.717   4.750   2.419  0.0228 -0.0169 -0.1739
12637WAT     H151254   2.745   4.832   2.431  0.1505 -0.0316 -0.3689
12637WAT     H251255   2.630   4.757   2.429  0.0252  0.1567 -0.2667
12637WAT    EPW51256   2.708   4.763   2.422 -0.2470  0.2750 -0.0414
12638WAT      O51257   5.460   5.412   3.148  0.6626  0.6022  0.1582
12638WAT     H151258   5.405   5.478   3.130  0.0885 -0.2305 -1.3256
12638WAT     H251259   5.424   5.376   3.219  0.5087  1.3661  0.4831
12638WAT    EPW51260   5.446   5.417   3.156  0.6313 -0.1235  0.2254
12639WAT      O51261   5.211   2.085   7.339 -0.6500  0.2052 -0.1585
12639WAT     H151262   5.238   2.006   7.314  0.7895  0.6343 -0.0634
12639WAT     H251263   5.225   2.134   7.268 -0.3447  0.6146  0.1769
12639WAT    EPW51264   5.217   2.081   7.325 -0.0080  0.8590 -0.2768
12640WAT      O51265   2.404   2.659   3.574  0.5854 -0.0567  0.3714
12640WAT     H151266   2.450   2.700   3.512 -0.9530 -1.6044 -1.9558
12640WAT     H251267   2.445   2.680   3.648  3.3957  0.7578 -1.2844
12640WAT    EPW51268   2.416   2.668   3.576 -0.7784 -0.1304  0.2085
12641WAT      O51269   2.922   2.453   7.501  0.2039 -0.1371 -0.4177
12641WAT     H151270   2.835   2.447   7.501 -0.1820  2.4073  3.1007
12641WAT     H251271   2.948   2.380   7.541 -0.1447 -1.2244 -2.0660
12641WAT    EPW51272   2.913   2.441   7.507 -0.1320  0.1857  0.5161
12642WAT      O51273   6.173   2.657   5.569  0.0099 -0.4929 -0.2844
12642WAT     H151274   6.239   2.665   5.513  0.1435  0.2718 -0.0317
12642WAT     H251275   6.207   2.681   5.645 -0.9941  1.7719 -0.4697
12642WAT    EPW51276   6.188   2.662   5.572 -0.4242  0.5125 -0.1230
12643WAT      O51277   3.291   5.991   1.529 -0.3096 -0.6398 -0.0723
12643WAT     H151278   3.209   6.022   1.521 -1.1164 -1.5088  3.1797
12643WAT     H251279   3.320   6.029   1.602  2.0354 -0.7961 -0.8395
12643WAT    EPW51280   3.283   6.001   1.539 -0.0904  0.1958  1.0645
12644WAT      O51281   2.505   5.568   3.389  0.0789 -0.5467 -0.4816
12644WAT     H151282   2.558   5.625   3.349  0.0010 -0.1211  0.0072
12644WAT     H251283   2.558   5.529   3.446  0.4774 -2.0043 -1.7804
12644WAT    EPW51284   2.521   5.571   3.391 -0.9187 -0.4223 -0.0759
12645WAT      O51285   4.676   4.119   3.515  0.4684 -0.0991 -0.3539
12645WAT     H151286   4.624   4.067   3.468  1.2603 -0.8584 -0.4110
12645WAT     H251287   4.754   4.082   3.507  0.7863  0.2832  0.8180
12645WAT    EPW51288   4.680   4.106   3.507  0.3473 -0.1575  0.4309
12646WAT      O51289   6.689   7.197   0.475  0.6291 -0.0236 -0.0296
12646WAT     H151290   6.706   7.236   0.398  1.1224  0.4973  0.3342
12646WAT     H251291   6.762   7.212   0.521  1.7689 -3.2214 -0.5694
12646WAT    EPW51292   6.703   7.205   0.470  0.0067  0.3532  0.1531
12647WAT      O51293   1.379   6.207   2.550  0.3959  0.3543 -0.3646
12647WAT     H151294   1.428   6.192   2.480  1.2260 -0.5815  0.3796
12647WAT     H251295   1.298   6.208   2.520  0.7734  0.4871 -1.4032
12647WAT    EPW51296   1.374   6.205   2.535 -0.3951  0.4270  0.2542
12648WAT      O51297   5.568   4.877   5.195 -0.2773 -0.0599  0.0173
12648WAT     H151298   5.501   4.915   5.235 -0.8328  1.0510 -1.8423
12648WAT     H251299   5.539   4.864   5.113  0.9442 -1.8149 -0.2050
12648WAT    EPW51300   5.554   4.880   5.189 -0.5969  0.4137 -0.5997
12649WAT      O51301   4.602   5.842   3.790  0.0440 -0.2013  0.1090
12649WAT     H151302   4.647   5.914   3.772 -1.1570  0.1659 -1.6574
12649WAT     H251303   4.524   5.873   3.815 -0.7707 -0.8604 -1.5167
12649WAT    EPW51304   4.597   5.857   3.791  0.5516 -0.2600  0.4127
12650WAT      O51305   0.598   6.534   3.776 -0.1720  0.0892 -0.0663
12650WAT     H151306   0.618   6.479   3.712 -1.0105 -0.9053  0.5089
12650WAT     H251307   0.635   6.497   3.846  0.3245  0.9176  0.1254
12650WAT    EPW51308   0.607   6.521   3.777  0.6115  0.5210 -0.0107
12651WAT      O51309   2.461   4.892   0.186  0.4073 -0.1370  0.0622
12651WAT     H151310   2.524   4.867   0.241  0.9719 -3.3715 -1.7978
12651WAT     H251311   2.398   4.833   0.199 -1.3869  1.7246  0.3249
12651WAT    EPW51312   2.461   4.880   0.196 -0.9190  0.4045 -0.2706
12652WAT      O51313   7.651   2.490   1.735  0.0327 -0.2218 -0.0124
12652WAT     H151314   7.628   2.408   1.750 -3.5697  0.2564 -1.7929
12652WAT     H251315   7.634   2.501   1.650 -3.1874  3.1552  0.7905
12652WAT    EPW51316   7.645   2.480   1.724  0.3374  0.8521  0.5325
12653WAT      O51317   2.031   6.542   1.459  0.2946 -0.0856 -0.7217
12653WAT     H151318   1.945   6.540   1.470  0.3392  0.0668 -0.3584
12653WAT     H251319   2.049   6.627   1.451  0.4565 -0.0939 -0.4463
12653WAT    EPW51320   2.021   6.554   1.459 -0.5411  0.5157  0.2200
12654WAT      O51321   4.135   2.130   2.909 -0.1604 -0.0317  0.6513
12654WAT     H151322   4.140   2.143   2.823 -1.4714  0.5537  0.6333
12654WAT     H251323   4.184   2.059   2.922 -0.8136 -0.7863 -0.7575
12654WAT    EPW51324   4.143   2.121   2.899 -0.2468 -0.5263  0.2792
12655WAT      O51325   1.738   3.614   2.696  0.6368 -0.2849 -0.2837
12655WAT     H151326   1.700   3.672   2.749 -0.0191 -0.3375 -0.6882
12655WAT     H251327   1.748   3.658   2.621  1.1134 -0.3644 -0.2721
12655WAT    EPW51328   1.734   3.629   2.692 -0.1328  0.2068 -0.3776
12656WAT      O51329   0.180   4.064   5.849  0.2625 -0.3263  0.1021
12656WAT     H151330   0.220   4.137   5.822 -2.5713  0.9903 -0.9764
12656WAT     H251331   0.241   4.024   5.897  1.7827  3.0642  1.3395
12656WAT    EPW51332   0.195   4.069   5.852  0.6392  0.1306  0.0091
12657WAT      O51333   4.095   5.122   3.767  0.2990  0.1216 -0.7132
12657WAT     H151334   4.108   5.038   3.746 -0.0038  0.0059 -0.4587
12657WAT     H251335   4.014   5.138   3.737 -0.2028 -0.0921  0.4673
12657WAT    EPW51336   4.085   5.112   3.759  0.1257 -0.6472  0.1856
12658WAT      O51337   1.608   3.145   1.625 -0.1048 -0.3039 -0.1793
12658WAT     H151338   1.628   3.128   1.542 -0.1755  1.7982 -0.6787
12658WAT     H251339   1.682   3.179   1.657  0.3624 -2.3507  1.0518
12658WAT    EPW51340   1.622   3.148   1.618 -0.3616  0.1186 -0.2559
12659WAT      O51341   1.042   6.177   6.167  0.6850 -0.0497 -0.5068
12659WAT     H151342   1.063   6.188   6.084  2.9175 -0.7204 -0.0925
12659WAT     H251343   1.063   6.253   6.205 -0.5190  0.3288 -0.5618
12659WAT    EPW51344   1.048   6.190   6.160  0.4225  0.9796  0.1775
12660WAT      O51345   2.252   6.015   4.634  0.0802  0.3068 -0.4109
12660WAT     H151346   2.325   6.001   4.590  1.1178  0.0417  1.3054
12660WAT     H251347   2.254   6.101   4.651  0.6364  0.1039  0.6504
12660WAT    EPW51348   2.263   6.026   4.630  0.3590 -0.0777  0.0171
12661WAT      O51349   1.715   1.327   3.535 -0.1696  0.2484  0.1189
12661WAT     H151350   1.651   1.296   3.484 -0.4051 -0.2904  0.7335
12661WAT     H251351   1.732   1.261   3.589 -1.0112  1.3153  1.7670
12661WAT    EPW51352   1.708   1.313   3.535  0.1012  0.3027 -0.5227
12662WAT      O51353   4.679   4.726   1.910  0.1720 -0.1538 -0.3158
12662WAT     H151354   4.728   4.680   1.965 -0.7188 -1.0110 -0.2000
12662WAT     H251355   4.616   4.670   1.887 -1.1340  1.0803  0.0584
12662WAT    EPW51356   4.677   4.711   1.915  0.4116  0.0053 -0.0140
12663WAT      O51357   3.481   5.278   3.014 -0.4690  0.3103  0.4493
12663WAT     H151358   3.516   5.247   2.941 -0.0481  0.4329  0.5966
12663WAT     H251359   3.425   5.215   3.038  1.7631 -1.3208  1.8106
12663WAT    EPW51360   3.478   5.264   3.007 -0.1126  0.2971 -0.2923
12664WAT      O51361   5.739   0.725   2.788  0.0715 -0.1413 -0.6455
12664WAT     H151362   5.776   0.677   2.725  0.0615  1.0272 -1.5827
12664WAT     H251363   5.798   0.722   2.853  1.5749  1.1592 -1.8756
12664WAT    EPW51364   5.753   0.718   2.788  0.0988  0.0348  0.1824
12665WAT      O51365   4.720   0.224   0.229  0.6594  0.3915 -0.0335
12665WAT     H151366   4.690   0.219   0.147 -0.3305 -0.4488  0.3490
12665WAT     H251367   4.649   0.245   0.276  1.0420  0.1083  0.6967
12665WAT    EPW51368   4.705   0.226   0.224  0.0054  0.1760  0.5318
12666WAT      O51369   1.950   4.408   5.925  0.2611 -0.4815  0.9853
12666WAT     H151370   2.020   4.455   5.903  0.0104  0.6369  2.4073
12666WAT     H251371   1.963   4.390   6.010 -0.4078 -1.6638  0.8659
12666WAT    EPW51372   1.962   4.412   5.934  0.0282 -0.5518 -0.2920
12667WAT      O51373   5.263   3.743   3.358  0.3107 -0.0868  0.1071
12667WAT     H151374   5.325   3.683   3.368  0.3900 -0.0774 -0.2972
12667WAT     H251375   5.218   3.714   3.288 -0.1202 -0.0778  0.3747
12667WAT    EPW51376   5.265   3.730   3.349  0.1367 -0.1559  0.0829
12668WAT      O51377   5.800   2.992   1.502 -0.6445 -0.4203 -0.5135
12668WAT     H151378   5.866   3.049   1.493 -0.7300 -0.5829 -2.7671
12668WAT     H251379   5.730   3.044   1.516 -0.6137  0.0450 -1.8983
12668WAT    EPW51380   5.799   3.008   1.503 -0.3749 -0.1412 -0.3652
12669WAT      O51381   7.075   1.659   3.383 -0.4035 -0.3972  0.3436
12669WAT     H151382   7.099   1.743   3.385  1.1185 -0.8072  2.4236
12669WAT     H251383   6.997   1.658   3.423 -0.0646 -0.0548  1.0254
12669WAT    EPW51384   7.067   1.671   3.389  0.0959  0.1806  0.3915
12670WAT      O51385   1.780   1.684   1.251 -0.4334 -0.2427  0.0131
12670WAT     H151386   1.847   1.736   1.273  0.2680 -0.7197 -0.9214
12670WAT     H251387   1.771   1.697   1.166 -1.5797 -0.1608  0.1311
12670WAT    EPW51388   1.789   1.694   1.242 -0.3307  0.1543 -0.1237
12671WAT      O51389   2.514   1.084   6.045  0.3239  0.7714  0.5854
12671WAT     H151390   2.581   1.117   6.091  0.7812 -0.0865  0.5478
12671WAT     H251391   2.447   1.090   6.100  0.6702  0.6035  1.0360
12671WAT    EPW51392   2.514   1.090   6.060  0.3178 -0.1695  0.0236
12672WAT      O51393   5.515   6.142   4.669 -0.3484  0.3430 -0.6984
12672WAT     H151394   5.532   6.212   4.618 -0.7469  1.5752  0.7811
12672WAT     H251395   5.430   6.128   4.656 -0.1876 -0.1367 -1.2876
12672WAT    EPW51396   5.505   6.151   4.659  0.3916 -0.2320 -0.3534
12673WAT      O51397   1.080   2.743   0.565  0.3394  0.5053  0.2605
12673WAT     H151398   1.006   2.789   0.572  0.2497  0.6999 -1.4902
12673WAT     H251399   1.054   2.670   0.525  1.0798  0.5803 -0.3810
12673WAT    EPW51400   1.065   2.739   0.560  0.6567 -0.2325 -0.1286
12674WAT      O51401   2.207   4.993   7.228  1.0417  0.5534  0.5279
12674WAT     H151402   2.137   5.019   7.183  0.6423  0.0939  0.8566
12674WAT     H251403   2.198   4.906   7.230  1.7221  0.4761  0.4210
12674WAT    EPW51404   2.195   4.984   7.222 -0.1864 -0.3776  0.1583
12675WAT      O51405   0.777   1.890   6.923 -0.1911  0.4274  0.2318
12675WAT     H151406   0.819   1.842   6.864 -0.5367 -0.2959  0.5704
12675WAT     H251407   0.694   1.862   6.918 -0.1513  0.0541  1.3489
12675WAT    EPW51408   0.771   1.879   6.913 -0.0640 -0.4379  0.3473
12676WAT      O51409   2.791   5.986   5.738  0.4327  0.2769  0.1472
12676WAT     H151410   2.859   5.937   5.716 -0.1028 -0.5775  0.3706
12676WAT     H251411   2.723   5.945   5.703 -0.2256 -0.0823  1.7558
12676WAT    EPW51412   2.791   5.973   5.729  0.6321 -0.0150  0.2526
12677WAT      O51413   4.769   3.412   4.371  0.9075 -0.1829  0.0203
12677WAT     H151414   4.811   3.369   4.308  1.3521  0.1434  0.0913
12677WAT     H251415   4.695   3.438   4.332  1.4648  0.5657 -0.5517
12677WAT    EPW51416   4.764   3.409   4.356  0.4107  0.2389  0.0621
12678WAT      O51417   2.548   3.469   6.008  0.6564  0.4661  0.3130
12678WAT     H151418   2.498   3.496   5.942  0.3829 -0.4957  0.1072
12678WAT     H251419   2.494   3.421   6.057  1.2837 -0.3282  0.2525
12678WAT    EPW51420   2.533   3.466   6.005  0.1416 -0.4618 -0.0610
12679WAT      O51421   6.608   0.346   3.096  0.8356 -0.2804 -0.1839
12679WAT     H151422   6.540   0.369   3.046  0.8114 -0.0551 -0.0469
12679WAT     H251423   6.677   0.377   3.052  0.7213  1.1392  0.6080
12679WAT    EPW51424   6.608   0.354   3.082 -0.2412  0.4853  0.6985
12680WAT      O51425   7.446   1.322   2.992 -0.0241 -0.4119 -0.5749
12680WAT     H151426   7.373   1.321   2.944 -0.5824 -0.3992  0.2585
12680WAT     H251427   7.428   1.268   3.058 -0.0853  1.1995  0.7947
12680WAT    EPW51428   7.433   1.314   2.995 -0.0336  0.7621  0.5570
12681WAT      O51429   2.239   4.642   7.297 -0.4707 -0.2475  0.1460
12681WAT     H151430   2.241   4.613   7.380 -0.3504 -0.0936  0.1986
12681WAT     H251431   2.321   4.668   7.283 -0.0913 -1.7095 -0.5427
12681WAT    EPW51432   2.252   4.642   7.307 -0.2539 -0.6962  0.9725
12682WAT      O51433   5.446   0.581   1.683  0.9263  0.6119 -0.2164
12682WAT     H151434   5.400   0.544   1.619 -2.7650 -2.4177  3.5937
12682WAT     H251435   5.512   0.525   1.696  0.5320  0.1654 -0.1203
12682WAT    EPW51436   5.449   0.567   1.676 -0.4074  0.3384 -0.2425
12683WAT      O51437   5.166   6.515   5.420 -0.2326  0.4206 -0.5936
12683WAT     H151438   5.113   6.446   5.412  0.4016 -0.2368  0.5780
12683WAT     H251439   5.186   6.516   5.505  0.5947  1.4392 -0.7716
12683WAT    EPW51440   5.161   6.505   5.432 -0.0113  0.3373  0.5254
12684WAT      O51441   4.743   1.918   6.337 -0.3512  0.6966 -0.4585
12684WAT     H151442   4.713   1.957   6.410 -1.0328  0.7657 -0.7628
12684WAT     H251443   4.675   1.870   6.311  0.1447  0.0860 -0.6435
12684WAT    EPW51444   4.728   1.917   6.344  0.2227 -0.0803 -0.0199
12685WAT      O51445   1.250   5.400   6.100  0.0022  0.0460 -0.1120
12685WAT     H151446   1.217   5.424   6.177 -1.6196 -0.4425 -0.6091
12685WAT     H251447   1.330   5.436   6.099 -0.6342  1.5900  1.0309
12685WAT    EPW51448   1.257   5.409   6.111 -0.1166 -0.2438 -0.1410
12686WAT      O51449   2.586  -0.012   6.237 -0.4661  0.1146 -0.1578
12686WAT     H151450   2.654  -0.009   6.182  0.0187 -0.5816  0.3874
12686WAT     H251451   2.587   0.066   6.276  0.3920 -0.0994  0.2710
12686WAT    EPW51452   2.596   0.000   6.234 -0.4648  0.1704  0.7188
12687WAT      O51453   5.865   4.163   7.103 -0.0004  0.6786  0.5972
12687WAT     H151454   5.852   4.108   7.036 -1.2080 -0.1554  1.4730
12687WAT     H251455   5.949   4.186   7.094 -0.3957  1.4769 -1.8454
12687WAT    EPW51456   5.876   4.158   7.092  0.3654  0.7269 -0.2902
12688WAT      O51457   6.183   6.696   3.041 -0.5210 -0.3375 -0.1754
12688WAT     H151458   6.208   6.778   3.025 -0.4261 -0.5510 -1.1217
12688WAT     H251459   6.258   6.652   3.047 -0.5494 -0.2822  0.8291
12688WAT    EPW51460   6.198   6.702   3.040  0.2055 -0.1350 -0.3810
12689WAT      O51461   2.149   4.138   2.480 -0.5491 -0.3008 -0.2022
12689WAT     H151462   2.207   4.113   2.540 -1.6177  1.0236  1.4656
12689WAT     H251463   2.087   4.179   2.526 -2.4306 -0.9514 -1.9966
12689WAT    EPW51464   2.149   4.141   2.496 -0.2308  0.4478 -0.6098
12690WAT      O51465   3.031   6.509   0.264 -0.8475 -0.6469 -0.2893
12690WAT     H151466   3.094   6.476   0.213 -1.0439 -2.8943  0.7792
12690WAT     H251467   2.992   6.568   0.213  0.3705 -1.1945 -1.9435
12690WAT    EPW51468   3.034   6.513   0.249 -0.0921 -0.0452 -0.1745
12691WAT      O51469   1.681   1.378   5.757 -0.0769  0.5547  0.0043
12691WAT     H151470   1.649   1.315   5.808 -2.0018  1.2345 -0.2980
12691WAT     H251471   1.647   1.361   5.679  3.2678 -0.8008 -1.3451
12691WAT    EPW51472   1.671   1.366   5.753  0.5150 -0.7424  0.0745
12692WAT      O51473   0.845   6.348   4.502 -0.2940 -0.5722  0.7311
12692WAT     H151474   0.843   6.262   4.515  1.1654 -0.8459 -0.5573
12692WAT     H251475   0.795   6.380   4.566 -0.3944 -2.3296  1.5740
12692WAT    EPW51476   0.837   6.340   4.513  0.5570 -0.1101 -0.3210
12693WAT      O51477   0.413   3.891   5.051  0.2315 -0.3368  0.0143
12693WAT     H151478   0.353   3.854   5.103 -0.1149 -1.4591 -1.1275
12693WAT     H251479   0.486   3.885   5.097 -0.1198 -1.0473  0.5008
12693WAT    EPW51480   0.415   3.885   5.066 -0.0427  0.2967  0.7274
12694WAT      O51481   6.840   6.078   6.202 -0.2190  0.0693  0.3706
12694WAT     H151482   6.806   6.095   6.281 -1.0111 -0.9752  0.2715
12694WAT     H251483   6.795   6.130   6.149 -1.5727 -1.1087  0.2766
12694WAT    EPW51484   6.828   6.088   6.206 -0.1058  0.0996 -0.0635
12695WAT      O51485   0.132   2.497   6.636  0.5773 -0.1059  0.2259
12695WAT     H151486   0.054   2.526   6.662  0.4675 -0.4713  0.3119
12695WAT     H251487   0.170   2.471   6.710  0.3016 -1.0580  0.0422
12695WAT    EPW51488   0.126   2.498   6.650  0.4109  0.3863  0.6606
12696WAT      O51489   1.024   1.228   1.824  0.1978 -0.1009  0.8794
12696WAT     H151490   0.951   1.191   1.854 -1.0760  2.1020  0.7862
12696WAT     H251491   1.016   1.220   1.737  0.4856 -0.5844  0.8974
12696WAT    EPW51492   1.012   1.222   1.815 -0.1036  0.3455  0.2131
12697WAT      O51493   5.649   1.163   5.521 -0.2670  1.1963 -0.0131
12697WAT     H151494   5.622   1.222   5.579  0.1361  1.3820 -0.0089
12697WAT     H251495   5.734   1.155   5.538 -0.0527  1.5516 -0.8295
12697WAT    EPW51496   5.657   1.171   5.532  0.1510 -0.0110  0.0739
12698WAT      O51497   3.702   5.479   0.746 -0.3110  0.4413  0.0456
12698WAT     H151498   3.714   5.394   0.729  2.8924  0.6223  0.9099
12698WAT     H251499   3.781   5.514   0.739 -1.4266  3.3066  0.2502
12698WAT    EPW51500   3.715   5.471   0.743  0.1261 -0.1979  0.5533
12699WAT      O51501   5.966   0.768   6.802  0.2287 -0.0808  0.3173
12699WAT     H151502   5.971   0.759   6.889  1.8641 -0.3147  0.2315
12699WAT     H251503   5.901   0.713   6.780  0.0438 -0.3020  1.3480
12699WAT    EPW51504   5.957   0.758   6.812  0.3175  0.1876 -0.1949
12700WAT      O51505   1.935   3.883   2.795  0.7632  0.4896 -0.7392
12700WAT     H151506   1.992   3.845   2.740 -0.0756 -1.1223 -0.5583
12700WAT     H251507   1.858   3.868   2.757  0.2548  0.2029  0.3745
12700WAT    EPW51508   1.932   3.875   2.781  0.5605  0.0413 -0.2301
12701WAT      O51509   2.360   3.646   2.048 -0.0510  0.5361 -0.2340
12701WAT     H151510   2.336   3.564   2.063 -2.0156  0.9631 -0.7061
12701WAT     H251511   2.444   3.640   2.025  0.3439 -1.1156  1.4437
12701WAT    EPW51512   2.369   3.633   2.047 -0.0991  0.3514  0.1024
12702WAT      O51513   4.103   2.904   6.823  0.2507  0.7443 -0.1501
12702WAT     H151514   4.074   2.904   6.905 -0.1936  2.7580 -0.2631
12702WAT     H251515   4.037   2.870   6.778  1.3364 -2.5851  0.4808
12702WAT    EPW51516   4.089   2.899   6.829 -0.0193 -0.3487 -0.5550
12703WAT      O51517   0.896   3.272   6.829  0.0854 -0.0341 -0.0488
12703WAT     H151518   0.899   3.199   6.877  0.7953 -0.1078 -0.1876
12703WAT     H251519   0.811   3.286   6.817 -0.0690 -0.5443  0.4295
12703WAT    EPW51520   0.884   3.264   6.834 -0.0642 -0.3359 -0.4982
12704WAT      O51521   5.579   7.122   2.373  0.0866  0.3021 -0.4196
12704WAT     H151522   5.525   7.072   2.327  0.9024 -1.3061  0.3047
12704WAT     H251523   5.641   7.143   2.316 -0.8773  1.5932 -1.0643
12704WAT    EPW51524   5.580   7.118   2.358  0.5008  1.1886 -0.2581
12705WAT      O51525   5.085   7.296   1.022  0.7505 -0.5551 -0.5416
12705WAT     H151526   5.078   7.253   0.946  2.6083 -1.6755 -0.1591
12705WAT     H251527   5.091   7.231   1.080  0.6696  0.2843  0.4180
12705WAT    EPW51528   5.085   7.280   1.019 -0.1033 -0.3891 -0.1439
12706WAT      O51529   5.622   7.278   6.284 -0.1208 -0.4937  0.7457
12706WAT     H151530   5.676   7.219   6.318  0.1299 -0.7538 -0.0896
12706WAT     H251531   5.543   7.243   6.299 -0.1121  0.0701  2.3102
12706WAT    EPW51532   5.618   7.264   6.291  0.4298  0.8013 -0.1329
12707WAT      O51533   0.321   4.762   3.778 -0.3328 -0.7201  0.2842
12707WAT     H151534   0.382   4.784   3.836 -0.4195 -1.2272  0.5762
12707WAT     H251535   0.292   4.685   3.808 -0.0808 -1.1930 -0.6675
12707WAT    EPW51536   0.326   4.754   3.791  0.0957  0.6324 -0.5984
12708WAT      O51537   6.228   2.248   1.983  0.0516 -0.2927 -0.6952
12708WAT     H151538   6.183   2.252   1.909  2.8142  2.0336 -2.4596
12708WAT     H251539   6.311   2.245   1.957  1.1572  0.5414  2.2930
12708WAT    EPW51540   6.234   2.248   1.968 -0.3108 -0.0334  0.4690
12709WAT      O51541   5.931   5.721   5.756  0.4339  0.3080 -0.2361
12709WAT     H151542   5.919   5.640   5.725 -1.3289 -0.2048  1.5652
12709WAT     H251543   5.885   5.771   5.701  0.2192 -0.1128 -0.4452
12709WAT    EPW51544   5.923   5.716   5.743 -0.6434  0.1021 -0.0990
12710WAT      O51545   0.599   7.053   4.960  0.4942  0.3773 -0.0513
12710WAT     H151546   0.591   7.010   5.036 -1.4629 -1.2876 -1.0958
12710WAT     H251547   0.538   7.114   4.964 -1.9958 -1.8268 -1.4869
12710WAT    EPW51548   0.589   7.056   4.972 -0.2703 -0.4741 -0.0949
12711WAT      O51549   2.516   4.723   7.307 -0.0621 -0.2974  0.3444
12711WAT     H151550   2.520   4.759   7.387  1.0424 -1.3827  0.8130
12711WAT     H251551   2.551   4.644   7.319  0.2213 -0.4342 -1.2418
12711WAT    EPW51552   2.522   4.717   7.321  0.1478 -0.6926 -0.2819
12712WAT      O51553   5.452   6.129   5.211 -0.3178 -0.4681  0.0573
12712WAT     H151554   5.536   6.144   5.191 -0.1619  0.2355  1.1378
12712WAT     H251555   5.435   6.052   5.172  1.0931 -1.0517  0.5174
12712WAT    EPW51556   5.462   6.120   5.202  0.0312 -0.2851  0.2178
12713WAT      O51557   5.886   5.745   7.302  0.4835 -0.3877  0.0894
12713WAT     H151558   5.854   5.826   7.309  1.9278  0.2378 -0.2581
12713WAT     H251559   5.957   5.746   7.352  0.3969 -1.5337  0.2745
12713WAT    EPW51560   5.892   5.757   7.311 -0.5720 -0.5172 -0.1660
12714WAT      O51561   4.609   6.809   2.035 -0.3484 -0.3559 -0.0126
12714WAT     H151562   4.633   6.783   2.115 -1.3653 -1.2122  0.0264
12714WAT     H251563   4.663   6.876   2.019  0.8141 -1.0521  0.8103
12714WAT    EPW51564   4.621   6.815   2.045 -0.0412 -0.6933  0.4446
12715WAT      O51565   6.330   3.884   6.694 -0.2787 -0.1943  0.2740
12715WAT     H151566   6.287   3.960   6.694 -2.4872 -1.3551 -0.1239
12715WAT     H251567   6.375   3.887   6.619  0.9398  1.3197  1.0060
12715WAT    EPW51568   6.330   3.895   6.683 -0.0036  0.3050 -0.2466
12716WAT      O51569   7.508   0.287   4.080 -0.2986  0.1577 -0.3770
12716WAT     H151570   7.504   0.354   4.024  0.2154 -0.1908 -0.8345
12716WAT     H251571   7.563   0.231   4.042 -0.9945 -0.6931 -0.1730
12716WAT    EPW51572   7.515   0.289   4.066 -0.4183 -0.2945  1.3308
12717WAT      O51573   1.665   5.248   0.222  0.5464  0.3166  0.4770
12717WAT     H151574   1.688   5.330   0.206  0.0254  0.4632  0.4538
12717WAT     H251575   1.596   5.236   0.170  2.2610 -1.0390 -1.6785
12717WAT    EPW51576   1.658   5.258   0.212  0.4874  0.0814  0.0192
12718WAT      O51577   6.418   5.755   4.433 -0.2452 -0.3683  0.4759
12718WAT     H151578   6.460   5.689   4.469  0.3287 -0.0397  0.4184
12718WAT     H251579   6.384   5.798   4.501  0.3399 -0.0830  0.5964
12718WAT    EPW51580   6.419   5.752   4.448 -0.2897  0.0136  0.3561
12719WAT      O51581   5.907   5.295   1.019 -0.0766  0.4616  0.2836
12719WAT     H151582   5.867   5.243   1.077 -1.1105 -1.2036 -1.7816
12719WAT     H251583   5.903   5.249   0.945  0.0304  3.0243 -1.4173
12719WAT    EPW51584   5.900   5.280   1.017 -0.4315 -0.2497  0.1748
12720WAT      O51585   5.473   3.644   7.569  0.3812 -0.2151 -0.0211
12720WAT     H151586   5.497   3.601   7.641 -1.5714  1.5610  1.8571
12720WAT     H251587   5.423   3.587   7.526  1.4726 -1.2647  0.0552
12720WAT    EPW51588   5.469   3.629   7.574 -0.3260  0.4118 -0.0499
12721WAT      O51589   1.316   0.310   1.935  0.3925  0.4125  0.0466
12721WAT     H151590   1.262   0.282   1.872  1.1957  1.5677 -1.2096
12721WAT     H251591   1.263   0.349   1.992 -0.2214  0.5686 -0.6149
12721WAT    EPW51592   1.301   0.312   1.934 -0.2205 -0.1364  0.6104
12722WAT      O51593   6.825   4.512   4.074 -0.1349 -0.1217 -0.1444
12722WAT     H151594   6.756   4.471   4.107 -0.3424 -0.7059 -1.2369
12722WAT     H251595   6.887   4.499   4.133 -0.9152  0.3137  0.7984
12722WAT    EPW51596   6.824   4.504   4.087  0.8312 -0.3485 -0.0630
12723WAT      O51597   3.156   1.880   1.668 -0.0043  0.2232  0.4018
12723WAT     H151598   3.175   1.965   1.675  2.6404 -0.1577 -0.8319
12723WAT     H251599   3.181   1.848   1.745  0.3559  0.3733  0.3516
12723WAT    EPW51600   3.162   1.888   1.681  0.0723  0.2127  0.0906
12724WAT      O51601   2.406   5.300   6.154  0.6388  0.2771  0.2157
12724WAT     H151602   2.462   5.296   6.087  1.7462 -0.1882  1.1289
12724WAT     H251603   2.360   5.372   6.138  1.5119  0.6832 -0.5709
12724WAT    EPW51604   2.408   5.310   6.142 -0.8264 -0.0269 -0.1966
12725WAT      O51605   6.486   6.987   2.577  0.0976  0.4273 -0.5951
12725WAT     H151606   6.408   6.997   2.615  0.6646  1.3848  0.3499
12725WAT     H251607   6.469   6.932   2.511 -1.7282  1.9048 -1.4707
12725WAT    EPW51608   6.472   6.980   2.573 -0.1223 -0.1771 -0.9854
12726WAT      O51609   4.195   6.758   0.565 -0.4925 -0.0846 -0.2065
12726WAT     H151610   4.111   6.780   0.573 -0.6865 -1.3164  1.7519
12726WAT     H251611   4.226   6.815   0.506 -2.0640  2.0978  0.9676
12726WAT    EPW51612   4.187   6.770   0.557  0.0483 -0.1263 -0.3770
12727WAT      O51613   5.014   6.274   5.376 -0.0539 -0.1528 -0.2695
12727WAT     H151614   5.090   6.233   5.387 -0.4822 -1.3567 -1.5578
12727WAT     H251615   4.970   6.255   5.449  1.6862  2.6584  1.7419
12727WAT    EPW51616   5.019   6.265   5.389 -0.1709  0.2324 -0.4085
12728WAT      O51617   6.920   4.818   3.744  0.5585  0.5039  0.4088
12728WAT     H151618   6.974   4.764   3.703 -0.0233  1.5135 -1.8502
12728WAT     H251619   6.957   4.829   3.822  2.7386 -0.0924 -0.4654
12728WAT    EPW51620   6.933   4.812   3.749 -0.3699  0.2492 -0.3774
12729WAT      O51621   0.431   4.335   1.985  0.1870 -0.0640  0.1217
12729WAT     H151622   0.469   4.387   2.044  2.7240 -0.2017 -1.2532
12729WAT     H251623   0.497   4.288   1.954 -1.1461 -0.4535 -2.3724
12729WAT    EPW51624   0.446   4.336   1.989  0.2833  0.7931 -0.0954
12730WAT      O51625   7.440   3.358   6.430  0.0477  0.2398  0.2108
12730WAT     H151626   7.464   3.417   6.372 -0.5170  2.0279  1.7050
12730WAT     H251627   7.505   3.358   6.488  0.0434 -0.6343  0.2362
12730WAT    EPW51628   7.453   3.366   6.430  0.3763 -0.6556  0.0948
12731WAT      O51629   1.782   7.011   6.421  0.4826 -0.0267 -0.4853
12731WAT     H151630   1.764   6.927   6.438  1.6157 -0.3490 -0.8382
12731WAT     H251631   1.736   7.054   6.483  0.4458 -0.9278  0.1386
12731WAT    EPW51632   1.772   7.005   6.433  0.7247  0.0264  0.0294
12732WAT      O51633   3.630   6.882   2.617 -0.2862  0.3728  0.1550
12732WAT     H151634   3.631   6.945   2.678 -1.5991  1.2427 -0.6546
12732WAT     H251635   3.707   6.891   2.578 -0.8231  2.2625 -0.6290
12732WAT    EPW51636   3.641   6.893   2.620 -0.4552  0.2633 -0.0171
12733WAT      O51637   7.459   5.291   6.011 -0.3269  0.3321 -0.1683
12733WAT     H151638   7.478   5.336   6.083  1.6905  1.2266 -1.1788
12733WAT     H251639   7.524   5.311   5.957 -0.3049 -2.4206 -1.3067
12733WAT    EPW51640   7.472   5.301   6.014  0.1306 -0.0585 -0.1719
12734WAT      O51641   5.807   5.363   3.977 -0.5163 -0.2847 -0.1930
12734WAT     H151642   5.845   5.344   4.053 -2.7014  1.5344  1.5286
12734WAT     H251643   5.826   5.447   3.965 -3.3355  0.5707  0.5036
12734WAT    EPW51644   5.815   5.373   3.987 -0.1987 -0.3930 -0.0108
12735WAT      O51645   7.523   7.040   3.238 -0.4321  0.7143 -0.3413
12735WAT     H151646   7.446   7.079   3.233 -1.2743 -0.7727  0.4022
12735WAT     H251647   7.523   7.005   3.318 -1.2224 -3.6742 -2.0037
12735WAT    EPW51648   7.512   7.041   3.249 -0.0364  0.0129 -0.2987
12736WAT      O51649   3.432   0.359   4.031 -0.0756 -0.4777  0.0786
12736WAT     H151650   3.362   0.403   4.004  0.0567 -0.0083  0.4856
12736WAT     H251651   3.406   0.321   4.105 -0.2922 -1.3736 -0.4440
12736WAT    EPW51652   3.418   0.360   4.038 -0.2961 -0.0294  0.5204
12737WAT      O51653   0.587   4.547   3.577 -0.5078 -0.2981  0.5659
12737WAT     H151654   0.607   4.474   3.619  0.1948 -1.0327 -0.9341
12737WAT     H251655   0.634   4.608   3.618  1.9930 -1.3659 -0.4520
12737WAT    EPW51656   0.597   4.545   3.589  0.2300 -0.3034 -0.6378
12738WAT      O51657   2.163   3.479   2.996  0.5322 -0.2731  0.1986
12738WAT     H151658   2.229   3.427   2.974  0.8198 -0.2950  1.0625
12738WAT     H251659   2.126   3.499   2.920  0.7626 -1.2773 -0.1911
12738WAT    EPW51660   2.167   3.474   2.981  0.5112  0.5724  0.1969
12739WAT      O51661   4.213   7.542   3.033 -0.2793 -0.5566 -0.5482
12739WAT     H151662   4.285   7.510   3.069  1.2071  0.7790 -2.1737
12739WAT     H251663   4.151   7.486   3.059  1.3306 -1.8287  0.7886
12739WAT    EPW51664   4.214   7.529   3.042 -0.0379 -0.3374 -0.8709
12740WAT      O51665   7.384   1.536   1.981  0.1708 -0.4862 -0.2325
12740WAT     H151666   7.459   1.543   2.025  0.0133  0.1829 -0.0620
12740WAT     H251667   7.381   1.610   1.934 -0.9034  0.0142  0.5806
12740WAT    EPW51668   7.395   1.548   1.980  0.2559  0.3648  0.1764
12741WAT      O51669   2.404   4.337   2.582 -0.0127  0.6998  0.3065
12741WAT     H151670   2.476   4.385   2.574 -0.0083  0.6961  0.3223
12741WAT     H251671   2.363   4.372   2.650  0.7575 -0.2790  1.3089
12741WAT    EPW51672   2.408   4.349   2.591 -0.1240  0.4208 -0.3466
12742WAT      O51673   4.693   7.209   3.998 -0.1406 -0.4062 -0.0494
12742WAT     H151674   4.634   7.258   4.040 -0.2426  1.1176 -1.8433
12742WAT     H251675   4.668   7.215   3.914  1.8778 -0.7009 -0.7120
12742WAT    EPW51676   4.680   7.217   3.992 -0.3078 -0.3099 -0.3856
12743WAT      O51677   2.193   2.124   3.294 -0.0300  0.5397 -0.1008
12743WAT     H151678   2.199   2.116   3.208  0.6784  1.3143 -0.1359
12743WAT     H251679   2.139   2.059   3.317 -0.1052  0.2319 -1.0988
12743WAT    EPW51680   2.186   2.113   3.285 -0.3187 -0.1800  0.1386
12744WAT      O51681   3.824   2.672   5.055  0.8089  0.1380 -0.1907
12744WAT     H151682   3.828   2.603   5.001  3.2705 -1.1045  1.3921
12744WAT     H251683   3.744   2.666   5.090  1.1934 -2.4378  0.4560
12744WAT    EPW51684   3.813   2.661   5.052 -0.7212  0.0486 -0.3221
12745WAT      O51685   0.966   4.801   5.141 -0.1066  0.1147 -0.4222
12745WAT     H151686   0.916   4.822   5.209  0.2510  0.6005 -0.3021
12745WAT     H251687   0.926   4.732   5.106  0.2811 -0.7933  0.8872
12745WAT    EPW51688   0.953   4.794   5.146  0.4645  0.1819  0.1488
12746WAT      O51689   3.813   6.736   5.591 -0.1118  0.8043 -0.4201
12746WAT     H151690   3.875   6.696   5.638  0.2202  0.6190 -0.9987
12746WAT     H251691   3.843   6.730   5.509 -1.1225  0.3089 -0.7670
12746WAT    EPW51692   3.827   6.730   5.586 -0.0562  0.1926  0.0114
12747WAT      O51693   2.450   2.428   2.772 -0.0188  0.1538 -0.2823
12747WAT     H151694   2.422   2.439   2.690 -0.3088  0.3365 -0.1602
12747WAT     H251695   2.451   2.509   2.805 -0.3559  0.0296  0.0380
12747WAT    EPW51696   2.446   2.442   2.765  0.2353 -0.3194  0.1438
12748WAT      O51697   6.267   5.201   1.308 -0.0814 -0.0089 -0.2049
12748WAT     H151698   6.277   5.228   1.226 -0.0565  0.6078 -0.0028
12748WAT     H251699   6.325   5.248   1.353 -0.1978 -0.2324  0.1887
12748WAT    EPW51700   6.277   5.212   1.303 -0.1611  0.0342  0.0056
12749WAT      O51701   2.285   0.481   3.628 -0.0907  0.3616 -0.1606
12749WAT     H151702   2.228   0.415   3.621  0.6203 -0.1319 -1.6439
12749WAT     H251703   2.244   0.538   3.681 -0.5772 -1.3818  1.4274
12749WAT    EPW51704   2.270   0.480   3.635  0.4280 -0.2516  0.5397
12750WAT      O51705   2.029   2.449   1.241 -0.1657 -0.4299  0.1866
12750WAT     H151706   2.059   2.377   1.202 -0.6317  0.1170 -1.2433
12750WAT     H251707   2.093   2.470   1.297  0.7444 -0.9826 -0.6224
12750WAT    EPW51708   2.043   2.441   1.244  0.8314  0.1369  0.0491
12751WAT      O51709   2.623   5.737   4.675  0.1914  0.3016  0.0773
12751WAT     H151710   2.570   5.689   4.627 -0.1851  2.0725 -1.3744
12751WAT     H251711   2.569   5.784   4.725  0.5682 -1.6798  2.5647
12751WAT    EPW51712   2.607   5.737   4.676 -0.1665  0.0581  0.4165
12752WAT      O51713   1.078   3.051   6.132 -0.0041  0.0122 -0.0808
12752WAT     H151714   1.007   3.000   6.134  0.5679 -0.9548 -2.0235
12752WAT     H251715   1.114   3.033   6.055  3.2843 -0.7827  1.4642
12752WAT    EPW51716   1.073   3.041   6.121 -0.1232 -0.3668  0.3170
12753WAT      O51717   4.838   7.067   4.444 -0.1489  0.3413 -0.2679
12753WAT     H151718   4.797   7.017   4.385  0.5290 -0.6795  0.0928
12753WAT     H251719   4.842   7.145   4.406 -1.9006  0.3371 -0.5461
12753WAT    EPW51720   4.832   7.071   4.430  0.1406  0.0472  0.0908
12754WAT      O51721   6.892   0.092   3.269 -0.1279 -0.0856 -0.6151
12754WAT     H151722   6.848   0.164   3.288  1.3981  0.7048  0.0635
12754WAT     H251723   6.965   0.121   3.230  1.2088 -1.1267  0.9602
12754WAT    EPW51724   6.897   0.107   3.266 -0.0532  0.0124 -0.7024
12755WAT      O51725   0.540   2.710   4.740 -0.4026 -0.0109 -0.0235
12755WAT     H151726   0.489   2.640   4.752  2.6005 -2.0457  2.6773
12755WAT     H251727   0.502   2.772   4.789 -2.6285  0.1000 -1.7375
12755WAT    EPW51728   0.527   2.709   4.749  0.2186  0.6277 -0.0271
12756WAT      O51729   2.144   5.837   0.135  0.1302 -0.0242  0.0662
12756WAT     H151730   2.224   5.801   0.137  0.0898 -0.2860  3.4595
12756WAT     H251731   2.151   5.899   0.075  2.2840 -1.2977 -1.1312
12756WAT    EPW51732   2.157   5.841   0.127 -0.2337 -0.1944 -0.1237
12757WAT      O51733   5.262   2.129   2.460  0.1228  0.5233  0.2253
12757WAT     H151734   5.334   2.115   2.412 -0.1538 -3.0285  0.5773
12757WAT     H251735   5.197   2.109   2.405 -0.2673 -1.7618  1.3995
12757WAT    EPW51736   5.263   2.124   2.445 -0.5678  0.2487 -0.1785
12758WAT      O51737   1.605   5.517   4.768 -0.2056  0.0814 -0.1169
12758WAT     H151738   1.653   5.450   4.737 -0.6038  0.0767 -0.7383
12758WAT     H251739   1.581   5.559   4.696  2.2427  2.4635  0.3135
12758WAT    EPW51740   1.609   5.513   4.753 -0.5732 -0.1442 -0.3543
12759WAT      O51741   0.951   7.162   0.417  0.1729 -0.1787  0.2922
12759WAT     H151742   1.034   7.176   0.392 -0.2802  1.6046 -0.3602
12759WAT     H251743   0.910   7.141   0.343 -0.3608  1.0571  0.2139
12759WAT    EPW51744   0.957   7.161   0.402 -0.7466 -0.3067  0.4909
12760WAT      O51745   3.391   5.243   0.095 -0.0477  0.1464 -0.0878
12760WAT     H151746   3.431   5.232   0.018  0.6236 -1.4992  0.4457
12760WAT     H251747   3.403   5.327   0.113  0.9113  0.2637 -1.1943
12760WAT    EPW51748   3.399   5.254   0.086 -0.5876 -0.0832  0.3676
12761WAT      O51749   6.036   4.774   7.255  0.3208 -0.5004  0.0130
12761WAT     H151750   5.963   4.774   7.207  1.3281 -0.8021 -1.6140
12761WAT     H251751   6.030   4.701   7.301 -0.5102 -0.3954  0.0908
12761WAT    EPW51752   6.024   4.763   7.255  0.5640  0.1854  0.3126
12762WAT      O51753   6.202   3.966   0.456 -0.1484 -0.2887  0.4043
12762WAT     H151754   6.285   3.938   0.460 -0.1756 -0.3913  0.2529
12762WAT     H251755   6.174   3.935   0.380  0.8037  2.8371 -1.4089
12762WAT    EPW51756   6.210   3.957   0.445 -0.1838 -0.7433  0.0789
12763WAT      O51757   1.893   0.153   1.071 -0.0144  0.4978  0.2204
12763WAT     H151758   1.835   0.151   1.136 -0.1937 -1.9245  0.1024
12763WAT     H251759   1.970   0.139   1.111 -0.0039 -0.0324  0.0244
12763WAT    EPW51760   1.896   0.151   1.086 -0.2511 -0.2904  0.0131
12764WAT      O51761   2.410   3.362   3.382  0.1027  0.0387  0.0166
12764WAT     H151762   2.404   3.291   3.331 -0.2774  0.0989 -0.0299
12764WAT     H251763   2.465   3.338   3.446 -0.1095 -0.3357  0.0597
12764WAT    EPW51764   2.417   3.348   3.384 -0.2060  0.3259  0.1602
12765WAT      O51765   2.224   6.096   3.059  0.0172 -0.5570  0.1983
12765WAT     H151766   2.170   6.154   3.097 -0.4732 -0.7976 -0.1222
12765WAT     H251767   2.205   6.021   3.099 -0.8325 -0.9097 -0.8086
12765WAT    EPW51768   2.213   6.094   3.071  0.2449 -0.6142  0.1907
12766WAT      O51769   5.941   4.340   4.921 -0.4150 -0.0340  0.5539
12766WAT     H151770   5.992   4.270   4.932 -3.3763 -2.3535  0.7418
12766WAT     H251771   5.975   4.379   4.851  0.6522 -2.3860 -0.3590
12766WAT    EPW51772   5.953   4.335   4.912 -0.4517 -0.1512  0.5186
12767WAT      O51773   6.350   5.264   1.055  0.6644 -0.3376 -0.5275
12767WAT     H151774   6.322   5.345   1.072 -2.3231 -1.0198 -1.4514
12767WAT     H251775   6.423   5.256   1.101 -0.8889  1.6424  2.6003
12767WAT    EPW51776   6.356   5.275   1.064  0.9151  0.5223  0.1065
12768WAT      O51777   3.713   1.054   0.434 -0.2512 -0.0272 -0.7905
12768WAT     H151778   3.722   1.081   0.516 -0.4389  0.5099 -0.9374
12768WAT     H251779   3.702   0.968   0.441  0.9945 -0.1708 -0.3416
12768WAT    EPW51780   3.713   1.045   0.447 -0.3655 -0.0005  0.1217
12769WAT      O51781   4.195   6.398   6.734  0.1060  0.3764 -0.1347
12769WAT     H151782   4.152   6.446   6.676  0.4590 -0.5637 -1.2212
12769WAT     H251783   4.278   6.403   6.707  0.3716  0.4766  0.6873
12769WAT    EPW51784   4.201   6.406   6.721 -0.3068  0.0590  0.1485
12770WAT      O51785   1.664   0.996   0.684 -0.4641 -0.3111  0.0470
12770WAT     H151786   1.687   0.951   0.754  1.2513 -0.6929 -0.6856
12770WAT     H251787   1.705   1.073   0.695  0.0144 -0.4600 -0.6202
12770WAT    EPW51788   1.674   1.001   0.696  0.1324  0.3517  0.1162
12771WAT      O51789   2.832   2.006   3.229 -0.0606  0.3736 -0.4110
12771WAT     H151790   2.874   2.050   3.292  0.0996  0.1824 -0.3845
12771WAT     H251791   2.803   2.069   3.176  0.6260  0.4845 -0.6597
12771WAT    EPW51792   2.834   2.022   3.231 -0.5691 -0.4524  0.1053
12772WAT      O51793   1.193   1.118   3.416  0.1902 -0.2398 -0.3770
12772WAT     H151794   1.254   1.147   3.360 -0.6849 -1.1565 -1.8698
12772WAT     H251795   1.161   1.191   3.451  0.8380  0.3631 -1.0073
12772WAT    EPW51796   1.197   1.133   3.413  0.0411 -0.0206 -0.4659
12773WAT      O51797   6.879   1.505   2.404 -0.5829 -0.1313  0.0512
12773WAT     H151798   6.828   1.505   2.332  1.2865  2.3611 -1.4400
12773WAT     H251799   6.839   1.563   2.456 -0.1018  0.7069 -0.4934
12773WAT    EPW51800   6.865   1.514   2.401  0.5637 -0.1040  0.2841
12774WAT      O51801   0.985   1.968   0.226 -0.3584  0.3822  0.0716
12774WAT     H151802   1.014   2.045   0.195  0.5777  0.1251  0.2815
12774WAT     H251803   1.039   1.910   0.189 -2.3281 -0.4108 -1.7730
12774WAT    EPW51804   0.997   1.971   0.216  0.4170  0.7075  0.4444
12775WAT      O51805   2.057   5.240   7.011  0.5584  0.0978 -0.0694
12775WAT     H151806   1.985   5.196   7.032  0.3901  0.2886 -0.2388
12775WAT     H251807   2.087   5.197   6.940  0.6671 -0.0420  0.0607
12775WAT    EPW51808   2.051   5.227   7.003  0.3395  0.1201 -0.0964
12776WAT      O51809   1.293   3.567   1.489 -0.1350 -0.0708  0.3793
12776WAT     H151810   1.309   3.530   1.411 -0.4974  0.8292 -0.1409
12776WAT     H251811   1.208   3.587   1.484  0.1184  1.0929  0.5160
12776WAT    EPW51812   1.283   3.565   1.477  0.3904 -0.2494  0.2678
12777WAT      O51813   0.346   5.275   3.288 -0.4651 -0.0102 -0.0097
12777WAT     H151814   0.349   5.361   3.272  1.0339  0.5568  2.6594
12777WAT     H251815   0.287   5.269   3.353 -0.8376 -1.0571 -0.4335
12777WAT    EPW51816   0.337   5.287   3.295 -0.0301  0.4629  0.0795
12778WAT      O51817   7.634   4.870   1.615 -0.3749 -0.0238  0.6168
12778WAT     H151818   7.560   4.915   1.610 -0.2807  0.3900  2.1967
12778WAT     H251819   7.668   4.875   1.535 -1.6832  0.4071  0.0731
12778WAT    EPW51820   7.628   4.877   1.603 -0.2954  0.2398  0.1339
12779WAT      O51821   0.912   5.191   4.052  0.1069  0.2297  0.0347
12779WAT     H151822   0.874   5.253   4.003  0.3845 -0.1757 -0.6917
12779WAT     H251823   0.972   5.157   4.000 -0.1569 -0.7786  0.3742
12779WAT    EPW51824   0.915   5.195   4.037 -0.6512 -0.0375 -0.1278
12780WAT      O51825   0.898   6.635   2.958 -0.1268 -0.1632 -0.4100
12780WAT     H151826   0.923   6.612   2.878  2.9610  0.2368  0.3244
12780WAT     H251827   0.926   6.717   2.966  0.3374 -0.4491  1.3269
12780WAT    EPW51828   0.906   6.644   2.947 -0.2587  0.0534 -0.6261
12781WAT      O51829   2.569   6.693   2.022  0.0877  0.1856 -0.2365
12781WAT     H151830   2.529   6.714   2.096  0.5911  0.2822  0.0083
12781WAT     H251831   2.517   6.728   1.961 -0.3332  0.1000  0.0616
12781WAT    EPW51832   2.555   6.701   2.024  0.9440 -0.0808 -0.3151
12782WAT      O51833   3.704   6.635   4.335 -0.4777 -0.5306 -0.7912
12782WAT     H151834   3.662   6.567   4.300  0.8477 -1.5223 -0.5082
12782WAT     H251835   3.694   6.623   4.421  0.2700 -0.7286 -0.7225
12782WAT    EPW51836   3.696   6.623   4.342 -0.0551  0.3300  0.3055
12783WAT      O51837   3.677   0.394   2.969  0.4229 -0.1978 -0.6276
12783WAT     H151838   3.631   0.387   2.895  0.4894 -1.1175 -0.5999
12783WAT     H251839   3.671   0.478   2.990 -4.4450 -0.6837  1.3718
12783WAT    EPW51840   3.669   0.405   2.962  0.0852 -0.0168  0.7560
12784WAT      O51841   1.869   5.272   1.645 -0.5512 -0.4772  0.1728
12784WAT     H151842   1.912   5.216   1.593 -1.3731 -0.1408 -0.9170
12784WAT     H251843   1.791   5.235   1.655 -0.8223  0.0690  0.1257
12784WAT    EPW51844   1.864   5.259   1.639 -0.0823 -0.1119 -0.3140
12785WAT      O51845   1.726   3.321   3.867 -0.5096  0.1917  0.0516
12785WAT     H151846   1.722   3.257   3.807 -1.8160 -0.5382  0.8662
12785WAT     H251847   1.772   3.383   3.827 -1.0056 -0.4191 -1.5647
12785WAT    EPW51848   1.732   3.321   3.852  0.0158  0.0330 -0.1192
12786WAT      O51849   2.593   5.142   2.901 -0.6157  0.1712  0.1049
12786WAT     H151850   2.552   5.208   2.861  2.2942  2.5037  0.6261
12786WAT     H251851   2.629   5.098   2.835  1.4321  2.0691 -0.1539
12786WAT    EPW51852   2.592   5.145   2.885  0.0152  0.1525 -0.5182
12787WAT      O51853   5.372   6.576   2.840  0.0570 -0.4321  0.2215
12787WAT     H151854   5.406   6.551   2.916 -1.1287 -0.1016  0.8816
12787WAT     H251855   5.300   6.618   2.863 -0.4842 -0.5973 -1.1124
12787WAT    EPW51856   5.367   6.579   2.854  0.6557  0.6443 -0.0191
12788WAT      O51857   0.644   7.187   2.163  0.1825 -0.2271  0.2320
12788WAT     H151858   0.712   7.135   2.148 -1.3945 -2.5619  0.6885
12788WAT     H251859   0.576   7.142   2.131 -1.6795  0.1248  3.2676
12788WAT    EPW51860   0.644   7.173   2.156 -0.7689 -0.4533 -0.4857
12789WAT      O51861   4.421   0.663   6.861 -0.0511  0.3051 -0.5506
12789WAT     H151862   4.351   0.614   6.845 -0.1789  0.3517 -0.1391
12789WAT     H251863   4.391   0.745   6.856  0.1362  0.3424 -1.1160
12789WAT    EPW51864   4.406   0.668   6.858 -0.0286 -0.3847  0.0628
12790WAT      O51865   0.369   7.207   6.617  0.2995  0.4435  0.2926
12790WAT     H151866   0.325   7.144   6.576 -0.5845  1.3098 -0.1420
12790WAT     H251867   0.399   7.167   6.689 -0.4987 -0.3966  0.1868
12790WAT    EPW51868   0.367   7.192   6.622  0.7646  0.0897  0.5883
12791WAT      O51869   7.539   1.768   3.608 -0.0746  0.2164  0.0106
12791WAT     H151870   7.559   1.695   3.565 -0.5612  0.0015  0.1447
12791WAT     H251871   7.539   1.744   3.691  0.4017  0.5254  0.1101
12791WAT    EPW51872   7.542   1.754   3.614  0.2800 -0.1702 -0.1497
12792WAT      O51873   1.376   1.918   0.866 -0.6638  0.0526 -0.2239
12792WAT     H151874   1.411   1.991   0.898 -1.1714 -0.0661  0.6369
12792WAT     H251875   1.412   1.911   0.787  1.1605  0.0099  0.5457
12792WAT    EPW51876   1.387   1.928   0.859  0.3753 -0.1912  0.1836
12793WAT      O51877   6.549   1.648   1.810 -0.0989 -0.0944 -0.3484
12793WAT     H151878   6.572   1.630   1.727  3.3941  0.3931  0.3596
12793WAT     H251879   6.552   1.735   1.813  0.8280 -0.1409  0.5014
12793WAT    EPW51880   6.553   1.658   1.798  0.3089 -0.2650  0.1172
12794WAT      O51881   6.373   0.187   1.473  0.4427 -0.8116  0.7030
12794WAT     H151882   6.431   0.252   1.468  0.8214 -1.1504  0.6655
12794WAT     H251883   6.319   0.203   1.407  0.7521 -0.7448  0.4627
12794WAT    EPW51884   6.374   0.199   1.463 -0.6152 -0.1366  0.1246
12795WAT      O51885   6.635   5.409   4.138 -0.3470  0.1387 -0.2987
12795WAT     H151886   6.656   5.494   4.134  0.0610  0.0810  0.5418
12795WAT     H251887   6.695   5.371   4.087 -1.2503  0.4660 -1.6548
12795WAT    EPW51888   6.647   5.416   4.130  0.7445  0.3120  0.0707
12796WAT      O51889   6.310   3.846   5.286  0.5856  0.3590 -0.8119
12796WAT     H151890   6.394   3.825   5.293  1.0180  2.3039  1.1445
12796WAT     H251891   6.272   3.803   5.351 -0.2221 -1.4009 -2.3567
12796WAT    EPW51892   6.317   3.837   5.296 -0.4590 -0.7788  0.6698
12797WAT      O51893   5.128   2.258   4.185 -0.1880 -0.2793 -1.1879
12797WAT     H151894   5.093   2.203   4.127  1.2845 -0.5696 -1.8394
12797WAT     H251895   5.059   2.284   4.232 -0.8944 -3.0039 -0.5381
12797WAT    EPW51896   5.112   2.254   4.183 -0.3128 -0.2488 -0.1594
12798WAT      O51897   3.099   7.211   0.797 -0.7171 -0.3614 -1.3990
12798WAT     H151898   3.129   7.135   0.766  0.3386 -1.2390  1.4029
12798WAT     H251899   3.171   7.253   0.821 -1.4311 -0.0757  0.3786
12798WAT    EPW51900   3.114   7.206   0.796  0.5674  0.1899 -0.2200
12799WAT      O51901   0.639   3.158   4.827 -0.1797  0.0625 -0.8668
12799WAT     H151902   0.683   3.175   4.901 -0.1549  0.5099 -0.9775
12799WAT     H251903   0.637   3.236   4.787  1.1310 -0.4647 -2.0542
12799WAT    EPW51904   0.645   3.172   4.832 -0.1891  0.6028 -0.2785
12800WAT      O51905   5.619   0.830   1.502  0.7840  0.4449 -0.4508
12800WAT     H151906   5.685   0.874   1.539  0.8318 -0.5432  0.7236
12800WAT     H251907   5.549   0.876   1.524  1.1075  2.1505 -2.6823
12800WAT    EPW51908   5.619   0.843   1.511  0.0851  0.2243  0.4147
12801WAT      O51909   7.395   0.475   3.021  0.1945  0.3230 -0.0974
12801WAT     H151910   7.385   0.459   2.936  2.4887 -1.6187 -0.0941
12801WAT     H251911   7.421   0.559   3.023  2.0775 -0.1498 -1.5783
12801WAT    EPW51912   7.397   0.485   3.009  0.3241  0.2674 -0.2839
12802WAT      O51913   2.946   2.721   6.575 -0.1017 -0.6111  0.2540
12802WAT     H151914   2.885   2.700   6.633  0.7003 -1.0894  0.9436
12802WAT     H251915   2.993   2.647   6.567  0.9176  0.0015  0.4176
12802WAT    EPW51916   2.944   2.707   6.582  0.6993 -0.6491  0.7112
12803WAT      O51917   2.271   2.900   1.010 -0.4563  0.7633 -0.0652
12803WAT     H151918   2.299   2.894   1.092  0.2771  1.7298 -0.2333
12803WAT     H251919   2.196   2.944   1.016 -1.4672 -0.9123  0.2725
12803WAT    EPW51920   2.264   2.906   1.023  0.7869 -0.0383  0.1642
12804WAT      O51921   6.398   4.142   1.871 -0.1083  0.0486 -0.1261
12804WAT     H151922   6.404   4.074   1.927 -2.1872 -2.9311 -3.1038
12804WAT     H251923   6.315   4.167   1.880 -0.4416 -0.4135 -1.6813
12804WAT    EPW51924   6.387   4.135   1.881 -0.1223 -0.5885  0.6047
12805WAT      O51925   3.440   6.819   4.480  0.1366 -0.5254 -0.0956
12805WAT     H151926   3.423   6.734   4.482  0.8995 -0.7845 -2.4890
12805WAT     H251927   3.371   6.853   4.439  0.1116 -0.0320  0.3348
12805WAT    EPW51928   3.427   6.812   4.474 -0.8512  0.5653  0.0314
12806WAT      O51929   2.853   7.343   3.181 -0.5011 -0.0825 -0.0519
12806WAT     H151930   2.927   7.298   3.189 -0.5109 -0.0428  0.2771
12806WAT     H251931   2.877   7.416   3.139 -0.0540  0.6358  1.3881
12806WAT    EPW51932   2.867   7.347   3.176  0.6117 -0.0384  0.4296
12807WAT      O51933   2.096   7.068   7.564 -0.1902 -0.3725  0.2039
12807WAT     H151934   2.024   7.019   7.560  0.3825 -1.3232  0.8575
12807WAT     H251935   2.082   7.131   7.505 -1.9694  0.0542  1.0185
12807WAT    EPW51936   2.084   7.070   7.555 -0.0761  0.1842  0.3723
12808WAT      O51937   6.664   7.401   0.708  0.2657 -0.7168  0.4467
12808WAT     H151938   6.636   7.364   0.782  0.9250  0.5541  1.3573
12808WAT     H251939   6.749   7.385   0.707  0.5166  0.5047  0.7187
12808WAT    EPW51940   6.672   7.393   0.718 -0.1690 -0.4628  0.1084
12809WAT      O51941   0.783   1.010   2.655 -0.0153 -0.8205 -0.6353
12809WAT     H151942   0.773   1.090   2.689 -0.3930 -0.8452 -0.6876
12809WAT     H251943   0.860   0.984   2.687  1.2422  0.4686 -2.4516
12809WAT    EPW51944   0.793   1.018   2.665  0.4790  0.0693  0.6329
12810WAT      O51945   3.536   2.508   5.023  0.1519  0.0692  0.1167
12810WAT     H151946   3.510   2.521   4.940 -0.0602 -0.8676  0.0291
12810WAT     H251947   3.507   2.428   5.042 -0.7855  0.7006  1.4854
12810WAT    EPW51948   3.528   2.498   5.013 -0.3326 -0.5416 -0.1689
12811WAT      O51949   3.492   4.224   0.109  0.0405  0.0022  0.4609
12811WAT     H151950   3.506   4.195   0.190 -1.7044 -1.1691  0.3999
12811WAT     H251951   3.572   4.248   0.082  1.1833 -2.2368  1.5238
12811WAT    EPW51952   3.506   4.223   0.117 -0.4638  0.0532  0.3926
12812WAT      O51953   3.309   1.421   4.910  0.0349 -0.1846 -0.3588
12812WAT     H151954   3.269   1.475   4.855 -0.0015  0.1696  0.0114
12812WAT     H251955   3.380   1.465   4.934  0.5664 -0.7343 -0.8747
12812WAT    EPW51956   3.314   1.435   4.905 -0.3219  0.5085 -0.3577
12813WAT      O51957   3.090   0.686   3.736 -0.0484 -0.3730 -0.1072
12813WAT     H151958   3.165   0.679   3.692  0.1467 -0.8166  0.2876
12813WAT     H251959   3.053   0.607   3.725 -0.1722 -0.3596  0.2097
12813WAT    EPW51960   3.096   0.673   3.728  0.2888 -0.2377  0.1218
12814WAT      O51961   7.329   4.653   6.611  0.3756 -0.7121  0.2713
12814WAT     H151962   7.390   4.679   6.668  0.2159  2.1170 -0.7252
12814WAT     H251963   7.280   4.724   6.598 -0.3359 -1.5742 -2.4263
12814WAT    EPW51964   7.331   4.667   6.618 -0.2711 -0.3785 -0.5342
12815WAT      O51965   3.485   1.475   1.478 -0.1279 -0.3913 -0.2719
12815WAT     H151966   3.559   1.468   1.433 -0.0542 -1.2559 -0.0408
12815WAT     H251967   3.428   1.427   1.432  0.4767 -3.1429  1.5672
12815WAT    EPW51968   3.487   1.467   1.465  0.3417  0.5739  0.0031
12816WAT      O51969   7.137   6.480   4.915  0.1342  0.0306  0.4258
12816WAT     H151970   7.093   6.464   4.989 -0.0715  0.4774  0.4093
12816WAT     H251971   7.188   6.410   4.905 -0.9467 -0.7342  0.1717
12816WAT    EPW51972   7.138   6.468   4.924 -0.3527  0.0600  0.1858
12817WAT      O51973   3.346   0.561   7.562 -0.1361  0.0891  0.0001
12817WAT     H151974   3.337   0.548   7.477  0.8552  0.6310 -0.2033
12817WAT     H251975   3.351   0.648   7.569 -0.1740  0.0474  0.6034
12817WAT    EPW51976   3.345   0.572   7.551  0.1270 -0.2475  0.3769
12818WAT      O51977   5.427   2.717   7.180 -0.2000 -0.2749  0.1095
12818WAT     H151978   5.450   2.759   7.253 -0.5265 -0.5858  0.3960
12818WAT     H251979   5.449   2.634   7.197  0.5235 -0.2221 -0.4807
12818WAT    EPW51980   5.434   2.711   7.193  0.0915 -0.2799  0.1564
12819WAT      O51981   0.185   4.933   2.320 -0.2443 -0.7644 -0.1169
12819WAT     H151982   0.203   4.911   2.402  0.3206 -1.1914 -0.3448
12819WAT     H251983   0.213   4.864   2.274  0.7997  0.0654 -0.7759
12819WAT    EPW51984   0.192   4.919   2.325 -0.3478  0.1881  0.5012
12820WAT      O51985   3.581   0.776   3.399 -0.0924  0.3118 -0.1664
12820WAT     H151986   3.518   0.806   3.347 -0.8169  2.9005  1.9206
12820WAT     H251987   3.640   0.841   3.399  0.7183 -0.3835  0.8451
12820WAT    EPW51988   3.581   0.790   3.391 -0.1518  0.4327  0.1782
12821WAT      O51989   7.257   5.523   2.618 -0.1074  0.2737 -0.1234
12821WAT     H151990   7.183   5.477   2.607  1.1177 -2.1532  0.9434
12821WAT     H251991   7.311   5.490   2.557  0.3297  1.5152 -0.4352
12821WAT    EPW51992   7.254   5.511   2.608 -0.2222  0.1102  0.4842
12822WAT      O51993   7.003   0.416   5.369  0.1363 -0.0750 -0.0929
12822WAT     H151994   7.031   0.443   5.446  1.2345 -0.6556 -0.2644
12822WAT     H251995   6.926   0.455   5.360  0.5037  0.8913  0.7850
12822WAT    EPW51996   6.996   0.425   5.379  0.0478 -0.3132  0.1212
12823WAT      O51997   0.031   4.769   3.447  0.4155 -0.1161  0.2908
12823WAT     H151998  -0.004   4.790   3.524 -1.6133 -1.6016 -0.1647
12823WAT     H251999  -0.034   4.781   3.390  0.5506 -2.8770 -0.6050
12823WAT    EPW52000   0.016   4.774   3.450 -0.2612  0.4806 -0.3142
12824WAT      O52001   6.063   4.409   3.479  0.1046 -0.5612  0.0983
12824WAT     H152002   6.098   4.425   3.557 -0.8732 -1.5339  0.7666
12824WAT     H252003   6.033   4.327   3.486  1.0848 -1.1323 -1.7210
12824WAT    EPW52004   6.064   4.399   3.491 -0.4763 -0.6576  0.0103
12825WAT      O52005   5.968   1.700   4.024  0.1013  0.2694  0.0769
12825WAT     H152006   6.044   1.735   4.001  0.3213 -2.1110 -3.5926
12825WAT     H252007   5.911   1.737   3.970 -1.0140  0.4403  1.3223
12825WAT    EPW52008   5.971   1.711   4.013 -0.4924 -0.0478  0.0872
12826WAT      O52009   6.136   4.661   6.022 -0.3038 -0.1799  0.1094
12826WAT     H152010   6.073   4.722   6.018  0.4480  1.0756  3.5851
12826WAT     H252011   6.210   4.708   6.023  0.4300 -1.3046  0.5438
12826WAT    EPW52012   6.138   4.677   6.022  0.1651  0.0765 -0.3820
12827WAT      O52013   5.695   5.779   0.046 -0.3726 -0.6624 -0.3485
12827WAT     H152014   5.731   5.857   0.034 -1.7460  0.0562 -0.0464
12827WAT     H252015   5.759   5.723   0.027  0.8398  0.5295  0.0813
12827WAT    EPW52016   5.710   5.782   0.041  0.5136 -0.5158 -0.0337
12828WAT      O52017   7.313   2.032   0.494 -0.2018  0.3233 -0.3629
12828WAT     H152018   7.381   1.982   0.516  0.7221  2.0652  1.0237
12828WAT     H252019   7.288   2.068   0.570 -1.5644  1.0551 -1.1183
12828WAT    EPW52020   7.320   2.030   0.508 -0.0080 -0.3396 -0.0813
12829WAT      O52021   5.073   2.627   3.618 -0.3682 -0.2254  0.2039
12829WAT     H152022   5.110   2.594   3.690 -0.1659 -1.2718 -0.3593
12829WAT     H252023   5.120   2.699   3.603  0.5483 -0.7715  0.3088
12829WAT    EPW52024   5.086   2.633   3.627 -0.3882 -0.6744  0.4381
12830WAT      O52025   2.061   1.985   3.691  0.5910 -0.8715  0.0402
12830WAT     H152026   2.088   2.015   3.613 -0.4051  0.5991  0.2170
12830WAT     H252027   2.132   1.994   3.741  0.3054  1.5721  0.1414
12830WAT    EPW52028   2.075   1.991   3.687  0.1299 -0.3602 -0.2307
12831WAT      O52029   7.103   6.078   3.583  0.0956 -0.3240  0.0278
12831WAT     H152030   7.106   6.130   3.513 -1.4000  0.0977  0.2331
12831WAT     H252031   7.186   6.053   3.594  0.6677  1.0675 -0.7998
12831WAT    EPW52032   7.116   6.082   3.574 -0.0572 -0.1310 -0.0759
12832WAT      O52033   7.299   0.163   0.223 -0.2927 -0.2104 -0.4810
12832WAT     H152034   7.249   0.102   0.184 -0.2583 -0.6096  0.0978
12832WAT     H252035   7.377   0.152   0.186 -0.5956  0.3745 -1.3464
12832WAT    EPW52036   7.303   0.153   0.212  0.3635  0.0111  0.5515
12833WAT      O52037   5.406   0.003   0.312 -0.0017 -0.5813  0.0002
12833WAT     H152038   5.328   0.031   0.342 -0.2309  0.0779 -1.1518
12833WAT     H252039   5.405   0.027   0.228  2.0935  0.8962  0.3288
12833WAT    EPW52040   5.394   0.011   0.304  0.4492 -0.2414 -0.3537
12834WAT      O52041   0.314   2.376   6.824  0.1066  0.5656  0.0520
12834WAT     H152042   0.310   2.294   6.795  0.2546  0.1163  1.2652
12834WAT     H252043   0.397   2.400   6.808  0.2684  0.2192  0.3536
12834WAT    EPW52044   0.326   2.367   6.817  0.0193  0.0027 -0.0931
12835WAT      O52045   4.314   6.879   7.088  0.1020 -0.5831 -0.0311
12835WAT     H152046   4.291   6.902   7.169 -0.4631 -2.0351  0.2545
12835WAT     H252047   4.270   6.935   7.038  2.0492  1.7111  0.6348
12835WAT    EPW52048   4.304   6.891   7.093  0.1370  0.8457  0.3874
12836WAT      O52049   0.142   3.951   2.527  0.0763  0.0834  1.4384
12836WAT     H152050   0.110   3.879   2.489  0.3432  0.0272  1.3112
12836WAT     H252051   0.155   4.006   2.460 -0.8814  0.5542  1.6277
12836WAT    EPW52052   0.139   3.948   2.512  0.2210 -0.1082 -0.3518
12837WAT      O52053   2.893   0.083   2.706 -0.5915  0.1176  0.0010
12837WAT     H152054   2.900   0.081   2.792 -1.0935 -0.9991  0.0413
12837WAT     H252055   2.926   0.005   2.681 -1.1062  0.1290 -0.7495
12837WAT    EPW52056   2.899   0.071   2.715  0.6911  0.3055 -0.0560
12838WAT      O52057   1.418   7.424   2.065  0.4621 -0.7814  0.1714
12838WAT     H152058   1.493   7.392   2.032 -0.1892 -0.8273 -1.3645
12838WAT     H252059   1.401   7.372   2.132  1.2191 -1.4962 -0.1652
12838WAT    EPW52060   1.427   7.412   2.070  0.3409 -0.1609  0.2991
12839WAT      O52061   0.174   2.837   2.776  0.4213 -0.2431 -0.1960
12839WAT     H152062   0.163   2.803   2.856 -0.3100 -0.4262 -0.3636
12839WAT     H252063   0.255   2.869   2.778  0.6219 -0.7703  0.4243
12839WAT    EPW52064   0.184   2.837   2.788 -0.1730  0.6792  0.3160
12840WAT      O52065   5.217   4.089   6.854  0.3131  0.5635  0.2905
12840WAT     H152066   5.288   4.083   6.804 -0.5084 -0.0079 -0.8622
12840WAT     H252067   5.216   4.173   6.879  0.6926  0.8939 -0.7523
12840WAT    EPW52068   5.227   4.101   6.850  0.4031 -0.1647 -0.3694
12841WAT      O52069   0.915   6.787   6.438  0.0967 -0.3028 -0.5809
12841WAT     H152070   0.847   6.764   6.389 -0.7615  0.3208  0.2829
12841WAT     H252071   0.905   6.740   6.511  0.2546  0.2310 -0.2065
12841WAT    EPW52072   0.904   6.777   6.442 -0.0204 -0.3861  0.3711
12842WAT      O52073   6.462   1.141   4.973  0.0817  0.2473  0.6742
12842WAT     H152074   6.504   1.086   5.025  1.2193  0.8344  0.4085
12842WAT     H252075   6.517   1.208   4.965  0.6117 -0.3844 -2.3444
12842WAT    EPW52076   6.476   1.143   4.979  0.4433 -0.0620  0.5889
12843WAT      O52077   2.454   3.672   3.694  0.1021 -0.3413 -0.5714
12843WAT     H152078   2.523   3.630   3.659 -1.1543 -1.5697 -1.6945
12843WAT     H252079   2.485   3.752   3.710  1.7714 -0.8368 -1.1010
12843WAT    EPW52080   2.469   3.678   3.691 -0.0259  0.0861 -0.6013
12844WAT      O52081   3.747   4.701   6.193 -0.3676 -0.1588  0.4801
12844WAT     H152082   3.793   4.723   6.122 -0.8065 -1.2000 -0.1489
12844WAT     H252083   3.806   4.704   6.257  0.6661 -1.6078 -0.3260
12844WAT    EPW52084   3.762   4.705   6.192 -0.3240 -0.6072  0.1141
12845WAT      O52085   0.700   4.839   0.057  0.3702 -0.1111  0.1062
12845WAT     H152086   0.751   4.796   0.113 -0.7332 -0.2928  1.0089
12845WAT     H252087   0.635   4.868   0.107 -1.7189 -1.9587 -1.3376
12845WAT    EPW52088   0.698   4.837   0.072 -0.1713 -0.1611  0.3329
12846WAT      O52089   3.730   2.024   2.338  0.2914  0.1041  0.2968
12846WAT     H152090   3.800   2.005   2.290  0.8008  2.1041  0.1603
12846WAT     H252091   3.765   2.053   2.413 -0.2734  2.2598 -0.1941
12846WAT    EPW52092   3.746   2.026   2.342 -0.3191  0.2902 -0.3888
12847WAT      O52093   1.468   5.134   6.616 -0.5061  0.0139  0.2697
12847WAT     H152094   1.472   5.213   6.580  1.3789 -0.2586 -0.1922
12847WAT     H252095   1.414   5.090   6.563 -1.0152  0.7786  0.1444
12847WAT    EPW52096   1.460   5.139   6.603  0.3658  0.3024  0.1891
12848WAT      O52097   2.134   7.361   5.246  0.5191  0.6536  0.0372
12848WAT     H152098   2.170   7.289   5.281 -0.1507  0.0139 -0.5491
12848WAT     H252099   2.199   7.396   5.200  1.1958  1.0961  1.2926
12848WAT    EPW52100   2.149   7.356   5.245 -0.6098 -0.2831  0.3247
12849WAT      O52101   6.207   1.149   2.318  0.3997 -1.0484 -0.1647
12849WAT     H152102   6.178   1.219   2.275 -1.5412 -0.8144  1.3860
12849WAT     H252103   6.294   1.155   2.310  0.2181  0.5607 -1.5424
12849WAT    EPW52104   6.216   1.161   2.311  0.1367 -0.2101 -0.5422
12850WAT      O52105   2.848   0.031   3.580  0.0689 -0.5798  0.1580
12850WAT     H152106   2.910   0.018   3.520 -0.1158  1.5363 -0.5661
12850WAT     H252107   2.804  -0.045   3.581  1.7448 -1.6233 -0.3463
12850WAT    EPW52108   2.851   0.018   3.571  0.2432 -0.6712  0.1440
12851WAT      O52109   0.512   5.909   5.649  0.6502  0.8535  0.4888
12851WAT     H152110   0.541   5.828   5.635 -0.0323  0.6779 -0.0015
12851WAT     H252111   0.570   5.943   5.705  1.1767  0.1718  0.3681
12851WAT    EPW52112   0.525   5.902   5.655  0.0075 -0.2528  0.1444
12852WAT      O52113   2.047   3.583   2.061 -0.0722 -0.6172 -0.0601
12852WAT     H152114   2.066   3.633   2.130 -1.7472 -0.0900  0.0805
12852WAT     H252115   2.082   3.627   1.994  0.9650 -0.7715  0.3622
12852WAT    EPW52116   2.055   3.597   2.061  0.2538  0.6740 -0.0862
12853WAT      O52117   7.333   3.459   0.918  0.1141 -0.1866 -0.1730
12853WAT     H152118   7.384   3.409   0.968  0.2017  0.3261  0.2686
12853WAT     H252119   7.310   3.407   0.852 -0.1644 -0.9450  0.5032
12853WAT    EPW52120   7.337   3.444   0.915 -0.4882  0.5181  0.0963
12854WAT      O52121   5.384   5.218   0.547  0.2441  0.1459  0.0191
12854WAT     H152122   5.370   5.238   0.631  1.6157  0.0803  0.2849
12854WAT     H252123   5.308   5.237   0.509  0.3246  2.4780  0.8620
12854WAT    EPW52124   5.370   5.224   0.554 -0.2639  0.1016  0.1991
12855WAT      O52125   7.049   2.395   1.086 -0.6926 -0.2161 -0.4191
12855WAT     H152126   6.969   2.362   1.096 -0.8687  0.2882 -0.0953
12855WAT     H252127   7.046   2.432   1.007 -0.7076 -0.3852 -0.4988
12855WAT    EPW52128   7.036   2.396   1.076  0.3806 -0.6797  0.4102
12856WAT      O52129   2.758   0.288   1.706  0.4494  0.7024  0.6266
12856WAT     H152130   2.671   0.285   1.698  0.2265 -1.0149  2.8385
12856WAT     H252131   2.780   0.357   1.657 -2.2505  1.8302  0.8017
12856WAT    EPW52132   2.748   0.298   1.698  0.5783  1.0848 -0.1346
12857WAT      O52133   4.378   1.317   1.580 -0.4873 -0.9450 -0.1572
12857WAT     H152134   4.452   1.327   1.625 -0.7469 -1.8405  0.5154
12857WAT     H252135   4.404   1.307   1.498  0.2089 -1.9275  0.1613
12857WAT    EPW52136   4.393   1.317   1.575  0.5600 -0.4752  0.5198
12858WAT      O52137   2.816   5.107   4.083  0.4518  0.4685 -0.0542
12858WAT     H152138   2.786   5.161   4.022  0.8754  0.4758 -0.2605
12858WAT     H252139   2.894   5.140   4.103  0.6856 -0.0323 -0.1366
12858WAT    EPW52140   2.823   5.120   4.077 -0.1211 -0.4119  0.8494
12859WAT      O52141   6.034   1.262   5.019  0.1270 -0.1629 -0.0062
12859WAT     H152142   6.025   1.346   5.043  0.1134 -0.1569 -0.0333
12859WAT     H252143   6.056   1.267   4.935  0.4675 -0.1730  0.0796
12859WAT    EPW52144   6.036   1.275   5.010  0.7341 -0.0514  0.3251
12860WAT      O52145   0.243   0.391   0.912 -0.0798 -0.2651  0.1982
12860WAT     H152146   0.317   0.435   0.924 -0.0574 -0.6059  1.4605
12860WAT     H252147   0.200   0.439   0.853  1.6287 -0.7114 -1.4935
12860WAT    EPW52148   0.247   0.405   0.905 -0.1827  0.1823  1.2455
12861WAT      O52149   1.676   2.169   2.321  0.0900 -0.0008 -0.0172
12861WAT     H152150   1.732   2.102   2.327  0.5417  0.2979 -0.8211
12861WAT     H252151   1.641   2.159   2.242  1.3947  1.6414 -0.8561
12861WAT    EPW52152   1.679   2.157   2.310  0.0461 -0.3497 -0.6497
12862WAT      O52153   5.616   1.025   2.871  0.1427 -0.8508  0.5466
12862WAT     H152154   5.667   1.017   2.801 -0.2774  1.3885 -0.0805
12862WAT     H252155   5.667   0.999   2.937  2.1877  1.3480 -0.0457
12862WAT    EPW52156   5.631   1.020   2.871  0.1160 -0.5351 -0.3055
12863WAT      O52157   6.729   3.703   6.676  0.2850  0.5391  0.1719
12863WAT     H152158   6.654   3.685   6.634 -0.1344  1.7565  0.3304
12863WAT     H252159   6.707   3.697   6.760  0.6119 -0.0091  0.2161
12863WAT    EPW52160   6.715   3.700   6.682 -0.0752 -0.2445 -0.1152
12864WAT      O52161   4.892   4.511   5.399 -0.1093  0.7412  0.3683
12864WAT     H152162   4.963   4.545   5.436 -0.7664  0.7775  1.6704
12864WAT     H252163   4.890   4.429   5.431 -0.4019  0.5941 -0.0202
12864WAT    EPW52164   4.902   4.504   5.409  0.0647  0.2414 -0.2291
12865WAT      O52165   4.957   3.937   5.941  0.1091 -0.6621 -0.3249
12865WAT     H152166   4.973   3.923   5.857  2.0851  1.6052 -0.4615
12865WAT     H252167   4.913   4.012   5.941 -1.2356 -1.4113  0.6448
12865WAT    EPW52168   4.953   3.946   5.929 -0.1298 -0.1861  0.4864
12866WAT      O52169  -0.014   4.076   7.452 -0.7021  0.5269 -0.0526
12866WAT     H152170  -0.014   4.157   7.484  0.6897  0.5784 -0.1326
12866WAT     H252171   0.049   4.078   7.392 -0.6608 -0.6153 -0.0600
12866WAT    EPW52172  -0.005   4.089   7.448 -0.7422 -0.1604  0.5408
12867WAT      O52173   2.135   3.043   0.699  0.0871  0.7339 -0.3892
12867WAT     H152174   2.089   3.020   0.770  1.2114 -0.5052 -0.0192
12867WAT     H252175   2.109   3.125   0.684 -0.5602  0.8584  1.1590
12867WAT    EPW52176   2.124   3.051   0.708 -0.1926  0.9052  0.5407
12868WAT      O52177   3.023   4.818   5.792  0.3143  0.4415  0.8153
12868WAT     H152178   2.936   4.819   5.804  0.0338 -0.4244 -0.8510
12868WAT     H252179   3.045   4.902   5.796 -0.7227  0.7453  0.5763
12868WAT    EPW52180   3.013   4.831   5.794  0.0434  1.1498  0.5178
12869WAT      O52181   3.498   0.712   3.787 -0.4202 -0.2527 -0.0871
12869WAT     H152182   3.464   0.741   3.862  1.3413  1.7115  0.0327
12869WAT     H252183   3.493   0.625   3.794 -0.4589 -0.1157  2.2246
12869WAT    EPW52184   3.492   0.704   3.799  0.5701  0.2666  0.9758
12870WAT      O52185   4.519   6.510   6.903 -0.4962  0.2341  0.0685
12870WAT     H152186   4.576   6.573   6.880  0.1554  0.0205  1.0719
12870WAT     H252187   4.508   6.465   6.829  0.8220  0.1491 -0.1034
12870WAT    EPW52188   4.526   6.513   6.888 -0.7332 -0.6008  0.2735
12871WAT      O52189   1.441   2.363   6.386  0.2893 -0.1152  0.6834
12871WAT     H152190   1.526   2.383   6.377  0.5084 -0.6693  1.3685
12871WAT     H252191   1.415   2.414   6.452 -0.3799  1.3196 -0.6169
12871WAT    EPW52192   1.450   2.374   6.394  0.1942  0.2715  0.3668
12872WAT      O52193   7.314   7.346   5.313 -0.1373  0.0519  0.3838
12872WAT     H152194   7.328   7.430   5.332 -1.3432  0.1299  1.0642
12872WAT     H252195   7.317   7.306   5.391  5.7182 -1.5587 -0.1867
12872WAT    EPW52196   7.316   7.352   5.327 -0.5092  0.4291 -0.7382
12873WAT      O52197   0.355   6.072   2.243  0.3731 -0.4794 -0.3601
12873WAT     H152198   0.301   6.038   2.302  1.1688 -2.2763 -0.6029
12873WAT     H252199   0.334   6.031   2.170  0.0077  1.0729 -1.1695
12873WAT    EPW52200   0.344   6.061   2.241 -0.4930 -0.0427  0.7501
12874WAT      O52201   2.337   5.574   4.813 -0.0180  0.0335  0.0382
12874WAT     H152202   2.339   5.493   4.845  0.8492  0.2213  0.4965
12874WAT     H252203   2.356   5.623   4.883  1.5403  0.4843 -0.6781
12874WAT    EPW52204   2.340   5.569   4.828  0.0425  0.1041 -0.0622
12875WAT      O52205   0.938   2.494   1.735  0.0728 -0.3875  0.4874
12875WAT     H152206   0.924   2.511   1.820  1.4056  1.8628  0.3368
12875WAT     H252207   1.025   2.483   1.731 -0.0738 -1.3341 -0.4783
12875WAT    EPW52208   0.949   2.495   1.747  0.0216 -0.0717 -0.7612
12876WAT      O52209   2.310   1.719   5.448 -0.5233  0.1636 -0.0054
12876WAT     H152210   2.345   1.788   5.407  0.2206 -0.2682 -0.1131
12876WAT     H252211   2.238   1.752   5.485 -0.7351  0.7626 -0.9152
12876WAT    EPW52212   2.304   1.734   5.447 -0.0033  0.6589  0.1289
12877WAT      O52213   1.189   5.717   6.978  0.0690 -0.1132 -0.4355
12877WAT     H152214   1.167   5.693   7.059  0.2464  1.1282  0.0044
12877WAT     H252215   1.131   5.780   6.959  1.9746  1.8848  0.0108
12877WAT    EPW52216   1.177   5.723   6.987  0.6593  0.4773 -0.1309
12878WAT      O52217   4.051   5.616   5.362  0.3250 -0.3865  0.0234
12878WAT     H152218   3.993   5.679   5.378  0.0016  0.1566 -2.8608
12878WAT     H252219   4.110   5.655   5.312  2.3457 -1.3989  1.4735
12878WAT    EPW52220   4.051   5.631   5.357  0.0509 -0.6351  0.5636
12879WAT      O52221   2.798   3.238   5.240 -0.1012  0.2589 -0.0078
12879WAT     H152222   2.782   3.155   5.264 -0.4341 -0.1109 -1.3996
12879WAT     H252223   2.860   3.264   5.296  0.7456 -1.2671 -0.1808
12879WAT    EPW52224   2.805   3.229   5.252 -0.3042 -0.0761  0.3297
12880WAT      O52225   3.336   7.330   0.864 -0.1747  0.6812 -0.5945
12880WAT     H152226   3.391   7.290   0.810  0.6522  0.1129  0.6336
12880WAT     H252227   3.333   7.412   0.834  0.1110  0.3331 -1.6036
12880WAT    EPW52228   3.344   7.336   0.851 -0.0258  0.1683 -0.5075
12881WAT      O52229   4.910   6.485   1.037 -0.5839 -0.0245  0.3767
12881WAT     H152230   4.943   6.560   1.067 -0.7537  0.2006  0.0123
12881WAT     H252231   4.923   6.490   0.950 -2.7918  0.7200  0.0146
12881WAT    EPW52232   4.917   6.497   1.028 -0.4990 -0.0489  0.5023
12882WAT      O52233   6.647   0.680   0.285  0.0128  0.1785  0.5548
12882WAT     H152234   6.578   0.734   0.288  1.7812  2.5869  0.3437
12882WAT     H252235   6.668   0.670   0.369  0.3169  0.7004  0.5438
12882WAT    EPW52236   6.640   0.687   0.298 -0.2773 -0.2402 -0.0821
12883WAT      O52237   2.188   1.439   1.025  0.3895  0.7146 -0.0540
12883WAT     H152238   2.236   1.484   0.967 -0.8909  0.8152 -1.0802
12883WAT     H252239   2.211   1.356   1.010 -0.6795  0.6362 -1.4827
12883WAT    EPW52240   2.198   1.433   1.014 -0.0507 -0.2857  0.3797
12884WAT      O52241   3.459   4.216   6.886 -0.5064  0.5496 -0.4351
12884WAT     H152242   3.421   4.235   6.810  0.3903 -1.1120 -1.3558
12884WAT     H252243   3.535   4.179   6.863  0.3328  1.0454  1.2906
12884WAT    EPW52244   3.465   4.214   6.872 -0.0129 -0.2915 -0.0218
12885WAT      O52245   4.613   0.609   1.517  0.2561  0.2065 -0.1685
12885WAT     H152246   4.575   0.607   1.439 -1.8469  1.4815  0.7178
12885WAT     H252247   4.658   0.684   1.515  0.7357 -0.0880 -0.3851
12885WAT    EPW52248   4.614   0.620   1.505  0.5580  0.1069  0.1830
12886WAT      O52249   3.196   1.219   0.558  0.2318  0.2794 -0.2503
12886WAT     H152250   3.199   1.136   0.583  0.2891  0.3044 -0.1719
12886WAT     H252251   3.174   1.215   0.474 -2.0478  0.2513  0.2595
12886WAT    EPW52252   3.193   1.206   0.550 -0.0829 -0.4104 -0.4061
12887WAT      O52253   2.791   2.817   4.417  0.0750 -0.1817 -0.3046
12887WAT     H152254   2.711   2.849   4.425 -0.5443 -2.0588  3.5540
12887WAT     H252255   2.841   2.877   4.455 -0.0860 -0.5563  0.5343
12887WAT    EPW52256   2.787   2.831   4.424 -0.3421  0.6764 -0.2568
12888WAT      O52257   7.262   0.276   6.328  0.6615  0.4501 -0.0489
12888WAT     H152258   7.260   0.202   6.374  0.4418 -0.3954 -1.3712
12888WAT     H252259   7.338   0.271   6.285 -0.9834 -0.9380 -3.1017
12888WAT    EPW52260   7.273   0.264   6.328 -0.0450 -0.4762  0.6179
12889WAT      O52261   7.376   6.871   0.013  0.4539  0.5294 -0.0015
12889WAT     H152262   7.453   6.850  -0.022  0.8463  1.1977  0.4522
12889WAT     H252263   7.396   6.927   0.076 -0.4505  1.1654 -0.2578
12889WAT    EPW52264   7.390   6.876   0.017 -0.3164  0.0267  0.6357
12890WAT      O52265   0.138   6.654   7.605 -0.0457 -0.8202  0.0531
12890WAT     H152266   0.066   6.617   7.573 -0.2748  1.4821 -2.5545
12890WAT     H252267   0.202   6.601   7.579 -0.6815 -2.4422  1.6549
12890WAT    EPW52268   0.137   6.641   7.596 -0.1848  0.1860  0.5650
12891WAT      O52269   4.905   4.083   1.258 -0.3740  0.0434 -0.0901
12891WAT     H152270   4.921   4.126   1.184  0.3375  1.2996  0.7634
12891WAT     H252271   4.984   4.059   1.285 -0.4352  1.0588  1.0924
12891WAT    EPW52272   4.919   4.086   1.251  0.1916 -0.4279 -0.1334
12892WAT      O52273   6.114   6.229   3.609 -0.6910 -0.6202  0.7763
12892WAT     H152274   6.036   6.203   3.638 -1.2580  1.4788  1.3239
12892WAT     H252275   6.094   6.279   3.540  0.1540 -0.0242  0.9562
12892WAT    EPW52276   6.099   6.232   3.603 -0.0214 -0.8513 -0.3482
12893WAT      O52277   2.047   7.540   4.362  0.0443  0.0492 -0.3448
12893WAT     H152278   2.088   7.492   4.422 -0.9953  0.1102  0.4319
12893WAT     H252279   1.964   7.515   4.368 -0.0374 -0.1775 -1.9960
12893WAT    EPW52280   2.041   7.529   4.372  0.1487  0.6120  0.3106
12894WAT      O52281   5.913   7.479   1.558  0.0419  0.5427 -0.3946
12894WAT     H152282   5.939   7.562   1.551  1.6786 -0.0160 -1.7391
12894WAT     H252283   5.982   7.434   1.529 -1.0265 -1.2739 -0.2552
12894WAT    EPW52284   5.927   7.485   1.553 -0.1492 -0.3916 -0.0392
12895WAT      O52285   1.888   0.234   4.049  0.1327 -0.2445  0.3182
12895WAT     H152286   1.949   0.199   3.998 -0.5859 -1.0166 -0.0434
12895WAT     H252287   1.883   0.317   4.021  0.6070 -0.3344 -0.0401
12895WAT    EPW52288   1.896   0.241   4.037 -0.4426  0.0066 -0.4431
12896WAT      O52289   0.433   7.455   0.058 -0.2563  0.5764 -0.1317
12896WAT     H152290   0.518   7.478   0.060  0.3872 -1.3303 -1.7541
12896WAT     H252291   0.426   7.410  -0.016 -3.0617  1.8420 -0.7400
12896WAT    EPW52292   0.445   7.452   0.048 -0.6298 -0.4072 -0.3111
12897WAT      O52293   2.432   2.530   7.396  0.7961 -0.0927 -0.1226
12897WAT     H152294   2.511   2.539   7.433 -0.2459  1.6116  1.9670
12897WAT     H252295   2.446   2.552   7.313  2.7621 -1.3385 -0.2046
12897WAT    EPW52296   2.446   2.535   7.389 -0.4989 -0.4727  0.3073
12898WAT      O52297   0.913   4.376   3.890 -0.5457  0.3495 -0.0341
12898WAT     H152298   0.862   4.335   3.946  1.4748 -0.4117  1.3534
12898WAT     H252299   0.867   4.375   3.815 -2.1426 -1.0315  0.9089
12898WAT    EPW52300   0.899   4.370   3.887 -0.0674 -0.0059  0.1163
12899WAT      O52301   6.669   3.229   6.061  0.0668 -0.7916  0.1624
12899WAT     H152302   6.705   3.169   6.008 -1.6225 -0.0966 -1.9471
12899WAT     H252303   6.692   3.305   6.023 -3.2930 -0.3159 -1.2590
12899WAT    EPW52304   6.678   3.231   6.047 -0.4079 -0.1542 -0.7254
12900WAT      O52305   0.839   3.533   4.666 -0.6540  0.0911  0.0502
12900WAT     H152306   0.778   3.471   4.663 -1.1439  0.5848 -0.7598
12900WAT     H252307   0.810   3.592   4.608 -0.5204  1.3559  1.2329
12900WAT    EPW52308   0.826   3.533   4.657 -0.1164  1.2474 -0.1948
12901WAT      O52309   7.509   1.299   0.359  0.4317  0.1144  0.3017
12901WAT     H152310   7.466   1.351   0.415 -0.7519 -0.0808 -0.4029
12901WAT     H252311   7.502   1.220   0.396  3.6667  0.5636  2.2557
12901WAT    EPW52312   7.502   1.295   0.373 -0.3269  0.4188  0.2501
12902WAT      O52313   2.650   4.440   2.325  0.1377  0.1194 -0.1930
12902WAT     H152314   2.665   4.378   2.385  2.0470 -0.0565 -0.7692
12902WAT     H252315   2.721   4.437   2.274  0.7120  3.2550  0.1762
12902WAT    EPW52316   2.663   4.431   2.327 -0.4946  0.2715  0.2916
12903WAT      O52317   5.165   7.274   4.093 -0.2304  1.0088 -0.6309
12903WAT     H152318   5.161   7.187   4.105 -0.9639  0.8899 -1.6439
12903WAT     H252319   5.115   7.287   4.023  1.1953  2.0471 -1.5062
12903WAT    EPW52320   5.157   7.263   4.084  0.1666 -0.3040  0.2617
12904WAT      O52321   0.521   3.956   5.680 -0.1406 -0.1399  0.6382
12904WAT     H152322   0.568   3.884   5.667 -1.7690 -1.2599  0.7164
12904WAT     H252323   0.503   3.953   5.766 -1.0969 -0.2119  0.4414
12904WAT    EPW52324   0.525   3.945   5.691  0.1913  0.6012  0.5204
12905WAT      O52325   6.693   7.481   5.942 -0.3510 -0.4609 -0.2007
12905WAT     H152326   6.616   7.451   5.916 -0.4415 -1.1108  0.7477
12905WAT     H252327   6.682   7.495   6.028  0.6214 -0.7162 -0.0179
12905WAT    EPW52328   6.680   7.479   5.951 -0.0127  0.0536 -0.2143
12906WAT      O52329   3.299   6.466   7.170  1.0057 -0.5528  0.2044
12906WAT     H152330   3.261   6.414   7.111 -0.4740  0.4585  0.2130
12906WAT     H252331   3.243   6.467   7.236  0.5742  1.6369 -0.1077
12906WAT    EPW52332   3.285   6.458   7.171 -0.1482  0.5430  0.0246
12907WAT      O52333   5.527   0.848   6.178 -0.4170  0.0955 -0.1216
12907WAT     H152334   5.457   0.862   6.129  0.2186  1.2031 -0.7397
12907WAT     H252335   5.531   0.918   6.229  1.7351  1.4352 -1.9575
12907WAT    EPW52336   5.517   0.860   6.178  0.1538 -0.1080  0.1856
12908WAT      O52337   3.036   5.454   0.379 -0.0221 -0.4277 -0.1708
12908WAT     H152338   3.045   5.456   0.292  1.3993 -0.9394 -0.0503
12908WAT     H252339   2.987   5.383   0.393  0.2471 -0.6884 -0.5245
12908WAT    EPW52340   3.030   5.444   0.368  0.2860  0.3374  0.0387
12909WAT      O52341   2.314   4.198   4.805 -0.0840 -0.6027 -0.1911
12909WAT     H152342   2.328   4.129   4.753 -1.2660  0.2756 -1.7282
12909WAT     H252343   2.253   4.170   4.860  0.3760 -1.1746  0.0487
12909WAT    EPW52344   2.307   4.184   4.806  0.2623 -0.1388 -0.1435
12910WAT      O52345   6.653   6.797   0.807  0.0464 -0.4633 -0.1298
12910WAT     H152346   6.634   6.824   0.888  2.8617  1.5952  0.0101
12910WAT     H252347   6.595   6.839   0.758 -0.5681 -0.3309  0.6772
12910WAT    EPW52348   6.641   6.807   0.812  0.1599 -0.3017  0.6097
12911WAT      O52349   4.227   6.164   3.531 -0.7758  0.0527 -0.1905
12911WAT     H152350   4.215   6.095   3.479  2.0011 -0.2875 -0.5485
12911WAT     H252351   4.167   6.153   3.593 -1.4515 -1.8195 -1.0815
12911WAT    EPW52352   4.216   6.152   3.532  0.1907 -0.6650  0.4838
12912WAT      O52353   4.397   0.870   0.235  0.0415  0.0492  0.0670
12912WAT     H152354   4.337   0.920   0.274  0.9937 -0.2556  2.0222
12912WAT     H252355   4.361   0.791   0.233 -0.7434  0.4205 -1.3919
12912WAT    EPW52356   4.383   0.866   0.240  0.3013  0.2522 -0.1048
12913WAT      O52357   1.905   3.629   1.422  0.3911 -0.1970 -0.5403
12913WAT     H152358   1.853   3.692   1.453  1.7888  0.3940  0.7405
12913WAT     H252359   1.854   3.558   1.424 -0.9940  0.7333 -1.3441
12913WAT    EPW52360   1.890   3.627   1.427 -0.4247  0.2466  0.1817
12914WAT      O52361   1.341   0.581   4.106  0.1639 -0.3918 -0.2082
12914WAT     H152362   1.423   0.566   4.079  0.6128 -0.2622  0.9979
12914WAT     H252363   1.327   0.516   4.163 -1.0565 -1.1550 -1.3308
12914WAT    EPW52364   1.351   0.569   4.111  0.8440  0.7178 -0.2038
12915WAT      O52365   5.736   2.965   6.649  0.1004  0.6445 -0.0493
12915WAT     H152366   5.802   2.963   6.592 -1.0889  1.6864 -1.5293
12915WAT     H252367   5.667   2.942   6.602 -0.4761 -1.9085  1.7940
12915WAT    EPW52368   5.735   2.961   6.634 -0.1416  0.7799  0.1109
12916WAT      O52369   2.203   5.097   2.712  0.1053 -0.0959  0.0069
12916WAT     H152370   2.281   5.137   2.708 -0.2389  0.8038  1.5875
12916WAT     H252371   2.160   5.143   2.772 -1.3543 -1.1116 -0.2288
12916WAT    EPW52372   2.208   5.110   2.720 -0.0474 -0.1826  0.4848
12917WAT      O52373   1.463   4.451   3.595 -0.2329 -0.1382  0.1001
12917WAT     H152374   1.540   4.416   3.616  0.5412 -0.3370 -2.6330
12917WAT     H252375   1.469   4.465   3.509 -2.7582  1.1441  0.0122
12917WAT    EPW52376   1.475   4.448   3.586  0.1430 -0.6995 -0.1380
12918WAT      O52377   1.450   0.769   4.818 -0.2851 -0.1966  0.3307
12918WAT     H152378   1.459   0.855   4.820  2.4161 -0.3912  1.1122
12918WAT     H252379   1.529   0.740   4.841 -0.3408 -2.8939 -2.2695
12918WAT    EPW52380   1.463   0.777   4.822 -0.2586  0.2453 -0.3467
12919WAT      O52381   7.281   7.224   3.805  0.3653 -0.8459 -0.1076
12919WAT     H152382   7.245   7.144   3.808  1.7308 -1.5139 -0.4139
12919WAT     H252383   7.352   7.216   3.855  1.4606 -0.3536 -1.5236
12919WAT    EPW52384   7.286   7.211   3.813 -0.2976  0.0206 -0.2430
12920WAT      O52385   0.126   6.383   3.554  0.0958  0.0178  0.4096
12920WAT     H152386   0.199   6.419   3.584  0.8189 -0.9853 -0.1170
12920WAT     H252387   0.082   6.363   3.627  0.6087  0.0928  0.7435
12920WAT    EPW52388   0.130   6.385   3.569 -0.0789 -0.2192 -0.2926
12921WAT      O52389   4.483   1.289   7.083  0.1995  0.0441  0.2502
12921WAT     H152390   4.494   1.302   7.168 -0.3206  1.4816  0.1233
12921WAT     H252391   4.408   1.331   7.065 -0.3900 -1.3151 -0.6844
12921WAT    EPW52392   4.473   1.297   7.093 -0.2098  0.5658 -0.0606
12922WAT      O52393   5.114   3.515   2.215  0.1788 -0.2014 -0.2589
12922WAT     H152394   5.028   3.511   2.227  0.0877  0.0869 -0.7838
12922WAT     H252395   5.138   3.586   2.259  0.4794 -1.4441  1.6755
12922WAT    EPW52396   5.105   3.525   2.223 -0.0043  1.2206 -0.0931
12923WAT      O52397   5.936   3.495   5.090 -0.0611  0.3430 -0.7455
12923WAT     H152398   6.014   3.532   5.106  0.5815 -0.5654 -1.6671
12923WAT     H252399   5.895   3.499   5.167  1.6140 -0.8350  0.2739
12923WAT    EPW52400   5.941   3.501   5.104 -0.0376  0.2235  0.1192
12924WAT      O52401   4.331   4.581   2.708 -0.1748  0.1054  0.2543
12924WAT     H152402   4.259   4.630   2.707 -0.7455 -0.7035  0.9660
12924WAT     H252403   4.357   4.585   2.791 -0.3655 -0.9903  0.3753
12924WAT    EPW52404   4.324   4.589   2.720  0.2240 -0.4738  0.5047
12925WAT      O52405   2.898   3.129   2.339 -0.3734  0.2654 -0.0447
12925WAT     H152406   2.865   3.123   2.258 -0.5938  0.5974  0.0188
12925WAT     H252407   2.851   3.072   2.385 -0.1858  0.0069 -0.1663
12925WAT    EPW52408   2.886   3.120   2.334 -0.3559 -0.5320  0.9307
12926WAT      O52409   1.011   3.792   6.012 -0.3562  0.1439 -0.3987
12926WAT     H152410   0.930   3.759   6.013 -0.4319  0.3155  0.4382
12926WAT     H252411   1.003   3.864   5.965 -0.1944 -0.9795 -2.2356
12926WAT    EPW52412   0.998   3.797   6.005 -0.0696  0.0689  0.2387
12927WAT      O52413   2.305   1.387   0.438 -0.7314  0.3253  0.0655
12927WAT     H152414   2.252   1.456   0.425 -0.2959  1.0476  1.8022
12927WAT     H252415   2.255   1.331   0.482 -0.7358 -0.0133 -0.3573
12927WAT    EPW52416   2.290   1.389   0.442 -0.0515 -0.3087 -0.0381
12928WAT      O52417   0.670   5.234   7.161  0.0371  0.4673  0.3203
12928WAT     H152418   0.749   5.227   7.124 -1.0270 -1.5623 -1.8215
12928WAT     H252419   0.683   5.204   7.242  1.5826  0.7741  0.2140
12928WAT    EPW52420   0.684   5.229   7.167  0.5158  0.0167  0.1336
12929WAT      O52421   3.943   1.171   6.454 -0.4774 -0.1431 -0.3540
12929WAT     H152422   3.921   1.096   6.493  0.4163 -0.2802 -0.0859
12929WAT     H252423   4.011   1.200   6.501 -0.5594  0.6360 -0.6911
12929WAT    EPW52424   3.950   1.164   6.467  0.5877  0.1523 -0.2457
12930WAT      O52425   3.144   2.405   5.500 -0.0612 -0.4785  0.3314
12930WAT     H152426   3.061   2.422   5.479  0.1218 -0.1745 -0.1576
12930WAT     H252427   3.158   2.455   5.570  0.2047  0.7597 -0.5712
12930WAT    EPW52428   3.134   2.415   5.507 -0.4449 -0.3203 -0.1206
12931WAT      O52429   5.571   1.701   3.556  0.4514 -0.3506  0.2377
12931WAT     H152430   5.501   1.719   3.606  2.5850  1.1598  2.9488
12931WAT     H252431   5.590   1.618   3.578 -2.0408 -1.9313 -2.7876
12931WAT    EPW52432   5.563   1.691   3.567 -0.1756 -0.6557 -0.2564
12932WAT      O52433   4.274   2.158   5.661  0.4282 -0.0236 -0.4662
12932WAT     H152434   4.340   2.136   5.607  0.6220  0.4328 -0.4165
12932WAT     H252435   4.254   2.082   5.700  1.2898 -0.0716 -0.0818
12932WAT    EPW52436   4.281   2.143   5.659  0.6967  0.1879 -0.1874
12933WAT      O52437   7.229   1.521   3.586 -0.4057 -0.6256 -0.3478
12933WAT     H152438   7.316   1.530   3.588 -0.3640 -1.1111  0.2986
12933WAT     H252439   7.204   1.583   3.530 -0.0413  2.5785  2.7043
12933WAT    EPW52440   7.238   1.531   3.578  0.1700 -0.1154  0.0839
12934WAT      O52441   2.525   3.928   4.104 -0.2944  0.0084 -1.1380
12934WAT     H152442   2.571   3.858   4.077  0.1854  0.7816 -2.4097
12934WAT     H252443   2.450   3.921   4.059  0.2418  0.9471 -2.2181
12934WAT    EPW52444   2.521   3.916   4.093  0.1833  0.2358  0.4598
12935WAT      O52445   2.665   6.376   1.547  0.6465  0.0993 -0.4488
12935WAT     H152446   2.713   6.376   1.620 -0.0810 -1.1495  0.0567
12935WAT     H252447   2.616   6.448   1.555 -0.3537 -0.6961  0.9395
12935WAT    EPW52448   2.665   6.387   1.559  0.7049  0.3464 -0.5019
12936WAT      O52449   2.325   5.430   1.279 -0.1225 -0.3681  0.2532
12936WAT     H152450   2.406   5.421   1.248 -0.1421  0.8610 -0.2188
12936WAT     H252451   2.290   5.491   1.227 -0.6721  0.6278  1.7356
12936WAT    EPW52452   2.332   5.438   1.267  0.4991  0.4790 -0.2736
12937WAT      O52453   2.151   2.917   3.590 -0.4115  0.6990  0.6088
12937WAT     H152454   2.127   2.844   3.630  0.6106 -0.5596 -0.9753
12937WAT     H252455   2.199   2.959   3.650 -0.6203 -0.1438  1.3706
12937WAT    EPW52456   2.155   2.913   3.605 -0.7123 -0.9587  0.1690
12938WAT      O52457   5.288   5.617   4.088  0.3158 -0.0117 -0.0344
12938WAT     H152458   5.370   5.597   4.113  0.0949 -0.7399  0.1244
12938WAT     H252459   5.298   5.643   4.006  0.5735 -1.2118 -0.4069
12938WAT    EPW52460   5.302   5.618   4.080 -0.2687  0.1277  0.5597
12939WAT      O52461   7.347   5.035   5.562  0.3599 -0.0748  0.6910
12939WAT     H152462   7.412   5.002   5.514  1.0137  1.1934  0.6422
12939WAT     H252463   7.276   5.021   5.513  1.1033  1.8454 -1.0999
12939WAT    EPW52464   7.346   5.028   5.548 -0.3205  0.0894  0.1633
12940WAT      O52465   5.309   1.679   2.437 -0.0808 -0.1862 -0.8283
12940WAT     H152466   5.290   1.608   2.485 -2.5304  1.9583  1.6868
12940WAT     H252467   5.340   1.735   2.496 -0.8517  1.7608 -2.2084
12940WAT    EPW52468   5.311   1.677   2.453 -0.0315 -0.2360  0.0615
12941WAT      O52469   5.713   5.643   5.373  0.0629 -0.6822  0.0204
12941WAT     H152470   5.684   5.560   5.370 -0.3682 -0.5899  1.1650
12941WAT     H252471   5.694   5.674   5.294 -2.5917 -0.7799  0.5312
12941WAT    EPW52472   5.706   5.635   5.361  0.0767 -0.0922 -0.7398
12942WAT      O52473   0.432   4.637   1.768 -0.3411  0.1333 -0.1044
12942WAT     H152474   0.478   4.680   1.828 -0.8214  0.4783  0.0238
12942WAT     H252475   0.402   4.700   1.716  0.1413 -0.1689 -0.7598
12942WAT    EPW52476   0.435   4.653   1.769  0.2671  0.1027  0.2577
12943WAT      O52477   5.780   2.588   5.941  0.0310 -0.4427 -0.2736
12943WAT     H152478   5.752   2.521   5.989  0.8055 -0.4652  0.1719
12943WAT     H252479   5.710   2.613   5.897 -0.3534 -1.3354 -0.1902
12943WAT    EPW52480   5.766   2.582   5.941 -0.2993 -0.7396  1.0915
12944WAT      O52481   7.474   6.030   0.133  0.4564 -0.4552 -0.4159
12944WAT     H152482   7.542   5.992   0.171  1.0996  0.8009 -0.2463
12944WAT     H252483   7.405   5.999   0.177  1.1243  0.3830  1.3276
12944WAT    EPW52484   7.474   6.020   0.145 -0.2196  0.3001  0.3721
12945WAT      O52485   4.076   4.972   4.817 -0.1164 -0.3988  0.4354
12945WAT     H152486   4.010   4.916   4.811  0.1677 -0.7511  0.5715
12945WAT     H252487   4.140   4.925   4.855  0.1508 -0.0136  0.4707
12945WAT    EPW52488   4.076   4.957   4.822  0.5001 -0.2032 -0.3549
12946WAT      O52489   6.833   3.685   1.149 -0.0107 -0.3666 -0.2319
12946WAT     H152490   6.788   3.674   1.075 -0.7777 -1.2003  0.3389
12946WAT     H252491   6.896   3.741   1.126 -1.1092  0.5626 -1.1438
12946WAT    EPW52492   6.836   3.692   1.134 -0.8101 -0.0231  0.4324
12947WAT      O52493   6.117   4.463   5.835  0.2952 -0.1093  0.8134
12947WAT     H152494   6.135   4.530   5.888  1.2543  0.5424 -0.3168
12947WAT     H252495   6.178   4.468   5.773 -2.4033  0.8701 -1.9843
12947WAT    EPW52496   6.129   4.473   5.834 -0.3722  0.4114 -0.4349
12948WAT      O52497   0.671   0.808   5.587 -0.6509  0.1916  0.1109
12948WAT     H152498   0.711   0.810   5.665 -0.1428  0.2003 -0.1467
12948WAT     H252499   0.736   0.789   5.531 -1.2572 -1.2194 -0.1550
12948WAT    EPW52500   0.687   0.805   5.590  0.2398  0.8581  0.2839
12949WAT      O52501   6.171   4.253   0.106  0.1171 -0.6300 -0.2416
12949WAT     H152502   6.097   4.213   0.081 -0.3378 -0.2154  0.3880
12949WAT     H252503   6.161   4.260   0.192  1.0217 -0.8058 -0.1235
12949WAT    EPW52504   6.158   4.248   0.115  0.6076 -0.0512  0.3890
12950WAT      O52505   6.186   7.285   0.531 -0.1560  0.3346 -0.0192
12950WAT     H152506   6.233   7.243   0.591  1.4833 -2.0641 -2.7391
12950WAT     H252507   6.246   7.316   0.476 -1.5967 -0.2316 -2.0318
12950WAT    EPW52508   6.201   7.284   0.531 -0.0135  0.4369  0.2387
12951WAT      O52509   0.279   4.051   6.989  0.8246 -0.5173 -0.5501
12951WAT     H152510   0.365   4.056   6.974  0.7890  0.2373 -0.5462
12951WAT     H252511   0.257   3.974   6.956  1.7474 -1.3472  0.6725
12951WAT    EPW52512   0.288   4.041   6.982 -0.3716  0.4076  0.5931
12952WAT      O52513   6.726   5.332   7.445  0.5906 -0.3482 -0.0819
12952WAT     H152514   6.811   5.316   7.432  0.5317 -0.4028 -0.4151
12952WAT     H252515   6.719   5.418   7.427  0.4055 -0.5429 -0.9847
12952WAT    EPW52516   6.737   5.343   7.440 -0.0611 -0.4218 -0.0449
12953WAT      O52517   2.387   3.977   4.667 -0.5761 -0.3346 -0.3230
12953WAT     H152518   2.468   3.955   4.691 -0.8282 -0.7894  0.1262
12953WAT     H252519   2.374   3.932   4.594 -0.7214 -0.9215  0.0539
12953WAT    EPW52520   2.397   3.967   4.660 -0.1873  0.1218  0.5274
12954WAT      O52521   4.878   4.502   5.924 -0.2764  0.4028 -0.0777
12954WAT     H152522   4.791   4.508   5.925 -0.4583 -1.2294  2.2367
12954WAT     H252523   4.904   4.575   5.964 -0.5226  1.1091 -1.1718
12954WAT    EPW52524   4.869   4.513   5.930  0.1327 -0.4792  0.0085
12955WAT      O52525   1.148   3.305   7.505  0.5717 -0.5750  0.8566
12955WAT     H152526   1.154   3.383   7.543  0.2842 -0.2926  0.3344
12955WAT     H252527   1.229   3.272   7.512  0.3610 -0.8292  2.3202
12955WAT    EPW52528   1.161   3.311   7.512 -0.5995  0.3744  0.0607
12956WAT      O52529   0.612   1.308   1.408  0.6219  0.5166 -0.0073
12956WAT     H152530   0.681   1.255   1.414  0.5321  0.5371  1.8208
12956WAT     H252531   0.648   1.388   1.408  0.6679  0.5197 -1.1311
12956WAT    EPW52532   0.627   1.312   1.409 -0.6752 -0.4052 -0.2710
12957WAT      O52533   2.612   4.966   5.335  0.5295 -0.0169 -0.1057
12957WAT     H152534   2.588   4.885   5.358  1.2148  0.2342  1.6189
12957WAT     H252535   2.687   4.978   5.378 -0.0827  1.9046  0.5200
12957WAT    EPW52536   2.619   4.955   5.345 -0.0011 -0.5654  0.2832
12958WAT      O52537   5.573   6.884   4.333 -0.1107  0.4889 -0.1827
12958WAT     H152538   5.534   6.879   4.255 -0.4196  0.9752 -0.0647
12958WAT     H252539   5.612   6.962   4.332 -0.4263  0.6616  0.2856
12958WAT    EPW52540   5.573   6.895   4.321 -0.1024  0.1999  0.1348
12959WAT      O52541   0.162   3.546   0.524 -0.1675  0.1776 -0.3365
12959WAT     H152542   0.119   3.619   0.503 -0.7096 -0.3393 -1.1060
12959WAT     H252543   0.240   3.557   0.487  0.1022  0.7669  0.3696
12959WAT    EPW52544   0.167   3.558   0.515  1.0426  0.3558 -0.3281
12960WAT      O52545   7.550   1.715   0.170 -0.1401 -0.4391  0.3155
12960WAT     H152546   7.623   1.761   0.183 -0.6644  0.1107  1.4369
12960WAT     H252547   7.494   1.773   0.138  0.3864 -1.2440 -2.3345
12960WAT    EPW52548   7.552   1.730   0.167  0.1826  0.5579  0.1761
12961WAT      O52549   3.012   6.598   0.864 -0.4467  0.4720  0.5604
12961WAT     H152550   2.967   6.527   0.841 -2.8940  1.8931  0.5712
12961WAT     H252551   3.025   6.639   0.788  1.0125  0.0301  0.5435
12961WAT    EPW52552   3.007   6.593   0.849 -0.2867  0.1322 -0.1298
12962WAT      O52553   6.217   6.433   0.040  0.7518  0.0110  0.2620
12962WAT     H152554   6.250   6.438  -0.040  0.2159  1.5937  0.1199
12962WAT     H252555   6.141   6.475   0.034  0.6125 -0.0158  1.5469
12962WAT    EPW52556   6.211   6.440   0.027 -0.4425  0.4445  0.5240
12963WAT      O52557   5.447   7.533   4.497 -0.4201 -0.3504  0.2285
12963WAT     H152558   5.424   7.455   4.464  0.1566 -0.0156 -1.0268
12963WAT     H252559   5.534   7.533   4.490 -0.5242  1.2994 -1.9880
12963WAT    EPW52560   5.457   7.521   4.491 -0.2351  0.0013 -0.2648
12964WAT      O52561   7.132   3.627   5.141 -0.2013 -0.3694 -0.0798
12964WAT     H152562   7.120   3.693   5.086 -2.3935  1.0084  1.8441
12964WAT     H252563   7.099   3.657   5.216  0.8633 -2.8284  1.5024
12964WAT    EPW52564   7.125   3.641   5.144 -0.0350 -0.4005  0.3280
12965WAT      O52565   6.923   3.006   7.050 -0.2006 -0.0464 -0.8142
12965WAT     H152566   6.927   3.080   7.096 -1.0637  0.0396 -0.8789
12965WAT     H252567   6.879   2.951   7.102  2.1742 -1.2182  0.1573
12965WAT    EPW52568   6.917   3.009   7.064  0.5395  0.3344  0.5198
12966WAT      O52569   2.094   2.630   2.424 -0.3065  0.3855 -0.1568
12966WAT     H152570   2.105   2.692   2.484 -1.5432 -1.4240  2.1412
12966WAT     H252571   2.009   2.611   2.430  0.2734 -2.6227  0.5518
12966WAT    EPW52572   2.083   2.636   2.434 -0.5632 -0.6135 -0.3940
12967WAT      O52573   4.219   0.883   4.891  0.0424 -0.3173  0.0372
12967WAT     H152574   4.160   0.868   4.954 -1.9233  0.7857 -1.4270
12967WAT     H252575   4.172   0.923   4.829  1.7074 -1.9450 -2.4398
12967WAT    EPW52576   4.203   0.886   4.891 -0.1539 -0.1541 -0.0572
12968WAT      O52577   2.255   4.062   3.694  0.0686 -0.5929  0.0775
12968WAT     H152578   2.245   4.128   3.637  0.2134 -2.3663 -2.1771
12968WAT     H252579   2.339   4.042   3.686 -0.4347 -2.5177 -1.1610
12968WAT    EPW52580   2.266   4.069   3.684  0.1972 -0.4885 -0.3102
12969WAT      O52581   2.332   4.254   7.540  0.3760 -0.2732 -0.0514
12969WAT     H152582   2.403   4.203   7.550  1.5400  1.4155  0.8914
12969WAT     H252583   2.271   4.199   7.512  1.6908 -2.0780  0.4231
12969WAT    EPW52584   2.334   4.238   7.537  0.1734 -0.0706 -0.1754
12970WAT      O52585   4.617   6.991   1.253 -0.4141  0.1727  0.3736
12970WAT     H152586   4.682   6.939   1.277  1.0524  1.7731  0.0668
12970WAT     H252587   4.626   7.060   1.306 -0.8532  1.1230 -0.7563
12970WAT    EPW52588   4.628   6.994   1.265 -0.5885  0.1916  0.0752
12971WAT      O52589   2.096   5.753   5.412 -0.4681  0.5473  0.3065
12971WAT     H152590   2.022   5.716   5.440 -1.1776  1.2490 -0.5390
12971WAT     H252591   2.071   5.834   5.392  0.3984  0.6098 -0.5808
12971WAT    EPW52592   2.081   5.759   5.413 -0.1789  0.7187 -0.0762
12972WAT      O52593   0.270   3.838   0.811 -0.6495 -0.0341 -0.0241
12972WAT     H152594   0.310   3.857   0.735  0.9833  0.1961  0.8488
12972WAT     H252595   0.211   3.901   0.819 -0.7436  0.0277 -1.0290
12972WAT    EPW52596   0.268   3.850   0.801  0.3612  0.2301 -0.0000
12973WAT      O52597   5.056   2.173   1.575 -0.1389  0.7606  0.0322
12973WAT     H152598   5.121   2.148   1.627 -0.3648  1.0878  0.4809
12973WAT     H252599   4.996   2.203   1.630 -0.5014  0.8464 -0.4023
12973WAT    EPW52600   5.057   2.174   1.591 -0.4804  0.6668 -0.2581
12974WAT      O52601   5.406   6.481   1.961  0.6161  0.1776  0.2419
12974WAT     H152602   5.430   6.400   1.940 -1.0180 -0.0044 -1.1139
12974WAT     H252603   5.329   6.470   2.001 -0.3336  1.1049 -1.2352
12974WAT    EPW52604   5.398   6.467   1.963 -0.0714 -0.1224 -0.9863
12975WAT      O52605   4.397   1.158   0.525  0.0400 -0.3052 -0.3632
12975WAT     H152606   4.400   1.071   0.514  0.9124 -0.6162  1.8386
12975WAT     H252607   4.348   1.168   0.596  2.2743  0.7418  1.1572
12975WAT    EPW52608   4.390   1.147   0.534  0.1694 -0.3405  0.1459
12976WAT      O52609   0.350   0.277   3.972 -0.0091 -0.1689 -0.6042
12976WAT     H152610   0.415   0.327   4.003  1.0494 -1.6240 -0.3775
12976WAT     H252611   0.278   0.322   3.994  0.7503 -0.1271  2.2798
12976WAT    EPW52612   0.349   0.291   3.980 -0.6208  0.0901  0.7039
12977WAT      O52613   7.529   5.683   0.159 -0.0278 -0.2416  0.0134
12977WAT     H152614   7.582   5.649   0.098  2.0123 -0.1286  1.6333
12977WAT     H252615   7.582   5.728   0.210 -1.8049  0.3891  1.4119
12977WAT    EPW52616   7.545   5.684   0.157  0.0491 -0.2191  0.1896
12978WAT      O52617   0.648   0.184   2.711 -0.3344 -0.0249 -0.2508
12978WAT     H152618   0.622   0.240   2.773 -0.6750 -0.1230 -0.3011
12978WAT     H252619   0.673   0.114   2.757  0.9925  0.4955 -0.1278
12978WAT    EPW52620   0.648   0.182   2.727 -0.0960  0.2795  0.3250
12979WAT      O52621   4.412   2.610   1.582  0.4845 -0.0375 -0.6067
12979WAT     H152622   4.380   2.558   1.644  0.7492 -0.4497 -0.8098
12979WAT     H252623   4.356   2.600   1.516 -1.5464  2.6995  0.5267
12979WAT    EPW52624   4.399   2.601   1.582 -0.3229  0.3693  0.0608
12980WAT      O52625   6.084   4.840   3.556  0.1425  0.1394  0.7799
12980WAT     H152626   6.136   4.812   3.621  3.3960 -1.3510 -2.1253
12980WAT     H252627   6.105   4.924   3.548  1.8658 -0.3161  0.0032
12980WAT    EPW52628   6.095   4.848   3.564 -0.1834 -0.1736  0.0747
12981WAT      O52629   7.329   6.212   5.184 -0.1399 -0.7454  0.3866
12981WAT     H152630   7.394   6.154   5.186 -0.0099 -0.6970 -1.2963
12981WAT     H252631   7.317   6.228   5.099 -1.5515  0.1545  0.7054
12981WAT    EPW52632   7.337   6.206   5.172  0.4147  0.3521  0.2510
12982WAT      O52633   0.429   5.407   0.921 -0.3590 -0.1127 -0.6099
12982WAT     H152634   0.354   5.365   0.937  0.0974 -1.0922 -0.9380
12982WAT     H252635   0.409   5.463   0.858 -0.9535  0.0806 -0.2559
12982WAT    EPW52636   0.415   5.409   0.914  0.1266 -0.6772  0.2763
12983WAT      O52637   3.434   6.608   6.400  0.4377  0.4320  0.2100
12983WAT     H152638   3.490   6.607   6.467  0.4784 -1.3306  0.1955
12983WAT     H252639   3.475   6.561   6.339 -0.2454  0.7557 -0.5138
12983WAT    EPW52640   3.448   6.601   6.401  0.0217 -0.4435 -0.3908
12984WAT      O52641   5.675   4.662   1.845 -0.9200  0.2632 -0.1924
12984WAT     H152642   5.623   4.711   1.895 -0.0085 -0.8248  1.9223
12984WAT     H252643   5.751   4.707   1.845 -0.5757 -0.3119  0.3752
12984WAT    EPW52644   5.679   4.676   1.852 -0.3756 -0.4731 -0.1923
12985WAT      O52645   3.158   7.567   4.401  0.1593 -0.0967 -0.0622
12985WAT     H152646   3.141   7.646   4.433 -0.8899  0.1162 -1.0897
12985WAT     H252647   3.193   7.583   4.323 -0.2081 -0.6321 -0.3465
12985WAT    EPW52648   3.161   7.581   4.394 -0.5355 -0.1860 -0.1612
12986WAT      O52649   3.523   2.567   1.611  0.0626 -0.0201 -0.0610
12986WAT     H152650   3.545   2.644   1.644 -2.0731  0.4979  0.2847
12986WAT     H252651   3.484   2.586   1.536 -0.8683 -0.7078  0.2226
12986WAT    EPW52652   3.520   2.581   1.605  0.3764 -0.1347 -0.0501
12987WAT      O52653   7.441   2.298   5.136 -0.4474 -0.0039  0.3307
12987WAT     H152654   7.470   2.216   5.129 -0.4647 -0.0097  0.3246
12987WAT     H252655   7.467   2.337   5.063 -1.7221 -0.3976 -0.3660
12987WAT    EPW52656   7.449   2.292   5.124  0.4018 -0.4733  0.2335
12988WAT      O52657   3.807   5.058   2.019  0.0176 -0.4083 -0.8417
12988WAT     H152658   3.825   5.143   2.021 -0.7249 -0.2526 -0.7001
12988WAT     H252659   3.884   5.021   2.036  0.5668  0.1975 -1.9283
12988WAT    EPW52660   3.821   5.065   2.022 -0.3827  0.2463  0.3541
12989WAT      O52661   3.345   2.221   7.004 -0.2807 -0.2168  0.6776
12989WAT     H152662   3.306   2.159   6.956 -0.7155  0.3736  0.2588
12989WAT     H252663   3.361   2.180   7.080  0.1589 -1.0759  0.1403
12989WAT    EPW52664   3.341   2.206   7.008 -0.5746  0.1538  0.5333
12990WAT      O52665   0.308   4.637   2.852 -1.1745 -0.1530 -0.1311
12990WAT     H152666   0.344   4.698   2.801  0.3798 -1.2977 -0.4971
12990WAT     H252667   0.235   4.616   2.810  0.8187 -2.2292 -2.9966
12990WAT    EPW52668   0.303   4.643   2.838 -0.4224 -0.3779  0.4555
12991WAT      O52669   5.893   4.153   1.724 -0.9716  0.2051  0.0831
12991WAT     H152670   5.866   4.169   1.806  0.4850 -0.8475  0.8143
12991WAT     H252671   5.950   4.217   1.708 -1.8248  0.8535 -0.4203
12991WAT    EPW52672   5.897   4.165   1.734  0.6268  1.3087  0.0787
12992WAT      O52673   1.852   2.316   5.377  0.0428  0.2497 -0.6058
12992WAT     H152674   1.834   2.255   5.317 -0.5279 -0.4075  0.2112
12992WAT     H252675   1.914   2.278   5.426  0.0951  0.5520 -0.4377
12992WAT    EPW52676   1.859   2.301   5.376 -0.0381  0.0329  0.3191
12993WAT      O52677   2.280   6.857   3.566 -0.0830 -0.4743 -0.2424
12993WAT     H152678   2.274   6.773   3.589  0.2337 -0.0810  1.4162
12993WAT     H252679   2.198   6.877   3.542 -0.6047 -0.8131  1.1250
12993WAT    EPW52680   2.267   6.848   3.566  0.3432 -0.7778 -0.0425
12994WAT      O52681   3.204   4.234   5.153 -0.3484 -0.3123  0.2658
12994WAT     H152682   3.284   4.201   5.163 -0.4287  0.2007  3.4823
12994WAT     H252683   3.206   4.267   5.072  1.6332 -2.9041 -0.9101
12994WAT    EPW52684   3.216   4.234   5.142  0.2781  0.1963  0.3450
12995WAT      O52685   3.404   3.402   1.462  0.6225 -0.3563 -0.3295
12995WAT     H152686   3.348   3.347   1.500  0.6709 -1.4646 -1.7945
12995WAT     H252687   3.472   3.351   1.441  1.0222  0.4205 -0.9776
12995WAT    EPW52688   3.406   3.386   1.464 -0.2916 -0.1937  0.0353
12996WAT      O52689   5.671   0.254   7.321 -0.1510  0.7660 -0.4841
12996WAT     H152690   5.704   0.276   7.399 -1.3181 -0.4538  0.3940
12996WAT     H252691   5.593   0.220   7.341 -1.6204  2.7313 -2.4015
12996WAT    EPW52692   5.664   0.252   7.336  0.6294 -0.6418  0.2628
12997WAT      O52693   3.179   2.633   0.675  0.3695  0.2523  0.3036
12997WAT     H152694   3.193   2.699   0.619  1.7835  0.8122  1.2617
12997WAT     H252695   3.094   2.641   0.695  0.2070  0.9791 -0.5983
12997WAT    EPW52696   3.168   2.644   0.670  0.0272 -0.0388  0.2046
12998WAT      O52697   1.350   4.409   3.955 -0.4330  0.2293 -0.1370
12998WAT     H152698   1.364   4.381   4.036 -1.6144  1.5680  0.5683
12998WAT     H252699   1.412   4.469   3.943 -1.8377  1.9429  0.8069
12998WAT    EPW52700   1.361   4.414   3.965 -0.0074 -0.1729 -0.1582
12999WAT      O52701   5.828   0.980   1.607  0.1323  0.0444  0.2431
12999WAT     H152702   5.902   0.934   1.604 -0.0405 -0.2094 -0.1895
12999WAT     H252703   5.855   1.063   1.604  0.4675 -0.0093  1.3923
12999WAT    EPW52704   5.843   0.986   1.606  0.3848 -0.2748 -0.1603
13000WAT      O52705   2.556   1.565   6.468  0.3696 -0.5880  0.0496
13000WAT     H152706   2.480   1.605   6.454  0.5332 -0.1824  0.2977
13000WAT     H252707   2.576   1.530   6.390  0.2727 -0.0976 -0.1995
13000WAT    EPW52708   2.548   1.566   6.454  0.0114 -0.2850  0.2631
13001WAT      O52709   2.619   3.000   0.557  0.2304 -0.4233 -0.1456
13001WAT     H152710   2.566   2.951   0.507  0.1890  0.3191 -0.8450
13001WAT     H252711   2.699   2.973   0.534  0.1858 -1.5660  0.9312
13001WAT    EPW52712   2.623   2.988   0.546 -0.4478  0.4245 -0.0657
13002WAT      O52713   6.785   7.445   5.398 -0.1591  0.1512 -0.1237
13002WAT     H152714   6.797   7.529   5.377 -0.1746 -0.2575 -1.8778
13002WAT     H252715   6.805   7.442   5.483 -0.2553  1.9391 -0.0124
13002WAT    EPW52716   6.790   7.457   5.408  0.1749  0.3147  0.0957
13003WAT      O52717   2.371   4.050   2.622  0.2893 -0.1153 -0.4506
13003WAT     H152718   2.397   4.134   2.622 -2.0210  0.6733 -0.9121
13003WAT     H252719   2.366   4.031   2.707 -0.9805  0.8701 -0.2774
13003WAT    EPW52720   2.375   4.060   2.635 -0.0805 -0.3317  0.4897
13004WAT      O52721   3.344   6.554   6.847 -0.0734 -0.1363 -0.2510
13004WAT     H152722   3.298   6.618   6.809 -0.8531 -1.6577 -2.0922
13004WAT     H252723   3.385   6.593   6.913 -0.6053  2.1989 -1.2232
13004WAT    EPW52724   3.343   6.569   6.851 -0.0935 -0.1039 -0.0015
13005WAT      O52725   6.926   4.654   6.360  0.1748 -0.3294 -0.0209
13005WAT     H152726   6.961   4.580   6.389 -0.5083 -0.4883  0.4169
13005WAT     H252727   6.841   4.635   6.352 -0.1484  0.6189  0.8553
13005WAT    EPW52728   6.919   4.640   6.363  0.1926 -0.2849 -0.3228
13006WAT      O52729   0.446   5.027   5.003  0.4234  0.0738 -0.4129
13006WAT     H152730   0.531   5.037   5.018  0.3903 -1.5219  1.3089
13006WAT     H252731   0.443   4.956   4.952  0.1324 -0.0640 -0.2057
13006WAT    EPW52732   0.458   5.018   4.998 -0.4382 -0.1310 -0.2319
13007WAT      O52733   1.177   4.164   0.651 -0.2353  0.3421 -0.2986
13007WAT     H152734   1.186   4.144   0.566  0.1480 -1.9680  0.2205
13007WAT     H252735   1.223   4.101   0.691  1.8193  2.8362  1.5812
13007WAT    EPW52736   1.185   4.152   0.644 -0.4259 -0.0636  0.0432
13008WAT      O52737   0.307   2.725   2.319  0.1772 -0.0747 -0.8533
13008WAT     H152738   0.249   2.757   2.375  0.3613 -2.3212  0.7639
13008WAT     H252739   0.359   2.794   2.301 -1.2315  1.2410 -0.0667
13008WAT    EPW52740   0.306   2.740   2.324  0.1740  0.3805  0.3112
13009WAT      O52741   1.894   0.317   3.311  0.0075 -0.4410 -0.3713
13009WAT     H152742   1.874   0.276   3.385  0.8645  0.6580  0.5067
13009WAT     H252743   1.847   0.391   3.315  0.4591 -0.1307 -0.6475
13009WAT    EPW52744   1.884   0.322   3.323 -0.4583 -0.6632  0.2006
13010WAT      O52745   1.745   7.275   5.172  0.1270  0.3478 -0.4223
13010WAT     H152746   1.811   7.217   5.175  0.9203  1.0004 -2.9979
13010WAT     H252747   1.723   7.277   5.088 -1.8759  1.6571  0.0602
13010WAT    EPW52748   1.752   7.267   5.160 -0.3212  0.1061 -0.1567
13011WAT      O52749   2.192   0.165   1.712 -0.0378  0.0392  0.1402
13011WAT     H152750   2.270   0.130   1.728  0.0199 -0.6983 -1.5953
13011WAT     H252751   2.209   0.223   1.649 -1.1596 -1.6384 -1.8174
13011WAT    EPW52752   2.206   0.169   1.705 -0.3592  0.5245  0.2854
13012WAT      O52753   1.487   6.762   2.080  0.8332 -0.6266 -0.3291
13012WAT     H152754   1.532   6.777   2.007  0.0984  0.5759 -0.5651
13012WAT     H252755   1.405   6.752   2.052  0.5122  0.0453  0.3485
13012WAT    EPW52756   1.481   6.762   2.065  0.2117  0.4086  0.5683
13013WAT      O52757   3.118   4.608   0.105 -0.2658  0.3828  0.3198
13013WAT     H152758   3.177   4.546   0.122 -0.8915  0.2519  2.3132
13013WAT     H252759   3.121   4.617   0.018 -0.5299 -2.8242 -0.1523
13013WAT    EPW52760   3.127   4.600   0.095  0.0715 -0.4940 -0.6755
13014WAT      O52761   5.874   5.350   6.354  0.0181 -0.5187  0.3305
13014WAT     H152762   5.789   5.347   6.335 -0.4236  0.3522  1.9542
13014WAT     H252763   5.888   5.435   6.372  1.4118 -0.5144 -0.6415
13014WAT    EPW52764   5.864   5.362   6.354 -0.2246 -0.0774  0.0580
13015WAT      O52765   0.767   5.375   2.203 -0.0217 -0.4656  0.3322
13015WAT     H152766   0.704   5.433   2.217  0.7127  0.1631  1.0754
13015WAT     H252767   0.807   5.405   2.131  0.6979  0.2620  1.0252
13015WAT    EPW52768   0.763   5.388   2.194 -0.1274  0.6824 -0.2278
13016WAT      O52769   1.165   0.432   3.925 -0.2073 -0.3099  0.2063
13016WAT     H152770   1.198   0.504   3.963 -0.4653  0.7604 -1.5080
13016WAT     H252771   1.223   0.370   3.944 -0.2147  0.2032  2.1322
13016WAT    EPW52772   1.179   0.433   3.934  0.5796 -0.1498  0.1435
13017WAT      O52773   3.268   5.924   6.928  0.1132  0.0047  0.1081
13017WAT     H152774   3.312   5.981   6.977 -0.0048 -0.0096  0.2344
13017WAT     H252775   3.327   5.895   6.871 -0.1902  1.3465 -0.9262
13017WAT    EPW52776   3.283   5.928   6.927 -0.5301  0.6556  0.3340
13018WAT      O52777   2.334   2.689   5.040 -0.0173  0.1266  1.0012
13018WAT     H152778   2.329   2.606   5.064 -0.8578  0.3543  1.6980
13018WAT     H252779   2.399   2.691   4.982 -0.2955 -1.0877  0.6304
13018WAT    EPW52780   2.343   2.677   5.035  0.1291 -0.3356  0.1645
13019WAT      O52781   7.482   7.083   6.706  0.4664  0.5176 -0.3794
13019WAT     H152782   7.552   7.052   6.664  0.1196 -0.9469  0.0928
13019WAT     H252783   7.478   7.166   6.679  0.9912 -0.0209 -2.2606
13019WAT    EPW52784   7.492   7.091   6.696 -0.1417  0.2522 -0.0770
13020WAT      O52785   2.258   7.218   1.373 -0.4663 -0.3474  0.3192
13020WAT     H152786   2.259   7.280   1.434 -0.4047 -1.2211  1.2105
13020WAT     H252787   2.174   7.213   1.351 -0.2065  1.8673 -1.6887
13020WAT    EPW52788   2.246   7.226   1.379 -0.1955  0.4401  0.3622
13021WAT      O52789   4.712   4.485   0.237  0.2840 -0.2558  0.2671
13021WAT     H152790   4.770   4.530   0.190  1.2618 -0.9482  0.7824
13021WAT     H252791   4.656   4.547   0.265  1.6663  0.6825  1.0754
13021WAT    EPW52792   4.712   4.501   0.234  0.0677 -0.0673  0.5476
13022WAT      O52793   4.893   4.563   2.047 -0.1593 -0.3098 -0.5447
13022WAT     H152794   4.945   4.611   2.097  0.6272  0.1476 -1.7422
13022WAT     H252795   4.866   4.500   2.100  0.9285 -0.0544  0.3565
13022WAT    EPW52796   4.897   4.561   2.062 -0.2925 -0.2174  0.4745
13023WAT      O52797   2.901   5.395   7.051  0.4941  0.3518 -0.2315
13023WAT     H152798   2.900   5.412   6.965 -0.3902  1.5305 -0.0216
13023WAT     H252799   2.833   5.341   7.062  1.2409 -0.6543 -0.4013
13023WAT    EPW52800   2.891   5.389   7.040  0.3559  0.3694 -0.2876
13024WAT      O52801   0.969   5.620   4.638 -0.6077 -0.0965 -0.4140
13024WAT     H152802   0.956   5.546   4.682 -1.6531  0.1576 -0.2624
13024WAT     H252803   1.047   5.609   4.601 -0.0777 -0.6637  0.8115
13024WAT    EPW52804   0.979   5.607   4.639  0.0279 -0.7966  0.2881
13025WAT      O52805   1.160   4.059   5.454  0.5403  0.0718  0.0260
13025WAT     H152806   1.246   4.051   5.446  0.5725  0.5670 -0.1525
13025WAT     H252807   1.147   4.145   5.453  0.0069 -0.0083 -0.3887
13025WAT    EPW52808   1.171   4.070   5.453 -0.0575  0.0069 -0.0223
13026WAT      O52809   1.320   6.843   5.959  0.3766  0.0933  0.5893
13026WAT     H152810   1.394   6.823   5.918  0.2217  0.8550 -0.1011
13026WAT     H252811   1.307   6.776   6.013  0.9313 -0.6329 -0.1574
13026WAT    EPW52812   1.329   6.830   5.961  0.3299  0.3254 -0.0115
13027WAT      O52813   4.507   6.286   0.664 -0.2603  0.0209  0.1162
13027WAT     H152814   4.467   6.215   0.633 -3.2768  1.6242 -0.0549
13027WAT     H252815   4.480   6.289   0.747  0.1027  0.7895  0.2114
13027WAT    EPW52816   4.497   6.276   0.672  0.1870 -0.0050 -0.5491
13028WAT      O52817   2.872   1.548   4.739 -0.0535  0.3012  0.2545
13028WAT     H152818   2.874   1.532   4.653  0.1385 -0.9267  0.4770
13028WAT     H252819   2.906   1.628   4.745 -1.1880  0.9199 -0.9233
13028WAT    EPW52820   2.877   1.557   4.727 -0.0953  0.0892 -0.3034
13029WAT      O52821   4.352   4.388   3.674  0.3888 -0.1896 -0.1778
13029WAT     H152822   4.296   4.325   3.652  0.2308  0.4081 -1.6038
13029WAT     H252823   4.351   4.441   3.605  0.2354  1.5939  1.1337
13029WAT    EPW52824   4.344   4.386   3.661 -0.4699 -0.6015 -0.1546
13030WAT      O52825   4.601   0.319   4.040 -0.3141 -0.0948  0.0886
13030WAT     H152826   4.659   0.381   4.022 -1.0340  0.2502 -1.1753
13030WAT     H252827   4.624   0.292   4.120  2.2891 -0.8183 -0.8217
13030WAT    EPW52828   4.613   0.324   4.049  0.0192  0.0514 -0.4173
13031WAT      O52829   1.318   2.071   4.234  0.2168 -0.1623  0.2602
13031WAT     H152830   1.308   2.027   4.160  1.0457 -0.4789  0.3369
13031WAT     H252831   1.316   2.009   4.296  1.8186 -0.1655  0.3378
13031WAT    EPW52832   1.316   2.055   4.233 -0.3726 -0.3107 -0.2858
13032WAT      O52833   6.867   5.866   4.086  0.1666  0.2750  0.6812
13032WAT     H152834   6.822   5.802   4.124  0.0368  0.4628  0.8475
13032WAT     H252835   6.950   5.844   4.099  0.1333 -0.4596 -0.2725
13032WAT    EPW52836   6.873   5.853   4.093 -0.2760  0.0482  0.5838
13033WAT      O52837   3.545   7.040   5.037 -0.1934  0.7725 -0.1006
13033WAT     H152838   3.496   7.085   4.980 -1.7773 -2.7040 -1.7409
13033WAT     H252839   3.609   7.007   4.988 -1.3610 -1.9546  0.0442
13033WAT    EPW52840   3.547   7.042   5.021 -0.0292  0.1423 -0.0333
13034WAT      O52841   0.886   4.539   1.785  0.0505 -0.6683  0.0512
13034WAT     H152842   0.903   4.609   1.833 -1.0558  1.0356 -1.8413
13034WAT     H252843   0.926   4.555   1.709 -1.2131 -1.4769 -0.8452
13034WAT    EPW52844   0.894   4.552   1.781 -0.0341  0.2473 -0.7510
13035WAT      O52845   2.283   0.555   7.467 -0.5929 -0.0853  0.3998
13035WAT     H152846   2.316   0.622   7.422 -0.1890  0.1948  1.0983
13035WAT     H252847   2.244   0.506   7.405 -1.1958  0.9534 -0.0756
13035WAT    EPW52848   2.282   0.558   7.451  0.5295  0.4215 -0.6335
13036WAT      O52849   0.334   2.790   4.146  0.8781  0.1302 -0.1690
13036WAT     H152850   0.281   2.831   4.091  0.4001 -0.6809 -0.3364
13036WAT     H252851   0.373   2.854   4.190 -0.2859  0.7409 -0.0080
13036WAT    EPW52852   0.332   2.805   4.145 -0.0884 -0.5352 -0.5184
13037WAT      O52853   0.257   7.090   0.955 -0.3580 -0.1346 -0.0684
13037WAT     H152854   0.336   7.064   0.983  0.5814  2.0048 -0.5121
13037WAT     H252855   0.202   7.044   1.003  1.1784 -1.0793  0.8774
13037WAT    EPW52856   0.261   7.079   0.966 -0.1109  0.4574  0.4634
13038WAT      O52857   2.981   0.464   4.357  0.2591  1.0186 -0.3138
13038WAT     H152858   3.030   0.405   4.316 -0.4520  1.3373 -1.6788
13038WAT     H252859   3.014   0.466   4.437 -1.0699 -2.8272  0.5228
13038WAT    EPW52860   2.993   0.456   4.362 -0.2455  0.1670 -0.0929
13039WAT      O52861   3.741   6.877   2.075 -0.6128  0.5194  0.2166
13039WAT     H152862   3.806   6.900   2.022 -0.6323 -1.1044 -0.5628
13039WAT     H252863   3.783   6.844   2.144 -0.6076  0.5907  0.2479
13039WAT    EPW52864   3.757   6.876   2.078  0.8236 -0.3337  0.1091
13040WAT      O52865   2.344   5.122   0.086 -0.3933 -0.3993  0.0121
13040WAT     H152866   2.290   5.098   0.022  0.4027  1.3823 -1.3780
13040WAT     H252867   2.377   5.046   0.114 -1.1471 -1.2509 -1.3265
13040WAT    EPW52868   2.341   5.107   0.081  0.1718  0.3102 -0.7284
13041WAT      O52869   1.837   4.699   6.038 -0.3840 -0.0588 -0.0140
13041WAT     H152870   1.879   4.661   6.104 -1.3635  3.4028  2.8887
13041WAT     H252871   1.777   4.639   6.016  0.9708 -1.9519  1.0738
13041WAT    EPW52872   1.834   4.684   6.044  0.5563  0.1334  0.3143
13042WAT      O52873   4.978   3.883   0.321 -0.7254  0.1539  0.9349
13042WAT     H152874   5.033   3.950   0.332  1.7971 -1.5007 -0.5151
13042WAT     H252875   4.946   3.868   0.401  1.6459  0.6535  2.0500
13042WAT    EPW52876   4.981   3.891   0.334 -0.1159  0.1379  0.3729
13043WAT      O52877   6.103   5.821   3.748 -0.1727  0.2955  0.4334
13043WAT     H152878   6.021   5.811   3.721  0.3181  1.0223 -1.5181
13043WAT     H252879   6.136   5.740   3.746 -0.6087  0.1181  0.3966
13043WAT    EPW52880   6.096   5.807   3.743  0.4102  0.0355  0.6055
13044WAT      O52881   1.230   6.725   2.355  0.0715  0.2119 -0.7160
13044WAT     H152882   1.306   6.741   2.394 -0.1963  0.9629 -0.4906
13044WAT     H252883   1.219   6.639   2.367 -0.1255  0.4593  1.1282
13044WAT    EPW52884   1.240   6.714   2.363 -0.3443 -0.7170  0.0889
13045WAT      O52885   2.666   4.471   7.386 -0.3813 -0.1285 -0.2947
13045WAT     H152886   2.741   4.430   7.370 -1.5741 -2.6866  0.1170
13045WAT     H252887   2.684   4.521   7.456  1.1639  0.1818 -0.8710
13045WAT    EPW52888   2.680   4.473   7.394  0.3487 -0.0746 -0.1337
13046WAT      O52889   6.918   6.823   0.644  0.4032 -0.0667 -0.1323
13046WAT     H152890   6.881   6.847   0.568 -2.0463  1.3551  1.3547
13046WAT     H252891   6.851   6.790   0.689  1.9279 -1.4892  1.2143
13046WAT    EPW52892   6.902   6.822   0.639 -0.2373 -0.0760 -0.3184
13047WAT      O52893   6.798   1.272   5.948  0.0528 -0.1340 -0.0180
13047WAT     H152894   6.742   1.271   6.016  0.0242  1.6691  0.0422
13047WAT     H252895   6.769   1.338   5.899  0.6869 -0.7635 -1.2815
13047WAT    EPW52896   6.786   1.282   5.951 -0.1216  0.8745  0.0329
13048WAT      O52897   4.066   5.150   3.139  0.2534 -0.4678  0.1060
13048WAT     H152898   4.116   5.111   3.199  1.3284 -0.7315 -0.9182
13048WAT     H252899   4.017   5.205   3.186 -0.0249 -1.7478  1.3775
13048WAT    EPW52900   4.066   5.153   3.155 -0.3802 -0.2324 -0.1751
13049WAT      O52901   1.016   6.071   1.965  0.3360 -0.5929  0.6115
13049WAT     H152902   0.970   6.098   1.896  3.1840 -0.5482 -1.4371
13049WAT     H252903   1.044   6.146   2.001  2.8136 -0.5694 -1.1623
13049WAT    EPW52904   1.013   6.086   1.960  0.2104  0.1579  0.2758
13050WAT      O52905   1.852   5.906   1.866 -0.0965  0.3613 -0.0812
13050WAT     H152906   1.832   5.886   1.949  2.2745 -1.5240  0.1589
13050WAT     H252907   1.919   5.962   1.874  1.2873 -1.1284 -0.6142
13050WAT    EPW52908   1.859   5.911   1.880 -0.5884  0.6750  0.6434
13051WAT      O52909   6.645   7.335   3.474 -0.1944  0.2568  0.0120
13051WAT     H152910   6.699   7.353   3.540 -1.4108  0.5634  0.9498
13051WAT     H252911   6.670   7.390   3.411 -0.6163  1.7355  1.0893
13051WAT    EPW52912   6.657   7.346   3.474 -0.0764  0.1891  0.1543
13052WAT      O52913   1.425   5.742   5.598  0.6791  0.0261  0.6157
13052WAT     H152914   1.395   5.686   5.657 -0.4664 -1.0600 -0.9324
13052WAT     H252915   1.456   5.691   5.534  1.1524  1.1481 -0.0856
13052WAT    EPW52916   1.425   5.727   5.597  0.3516  0.3904  0.6901
13053WAT      O52917   5.846   6.305   6.547  0.8020 -0.2404 -0.3059
13053WAT     H152918   5.832   6.218   6.547  2.3714 -0.5209  0.0705
13053WAT     H252919   5.930   6.312   6.526  0.6565  1.2118 -0.4500
13053WAT    EPW52920   5.856   6.293   6.544 -0.2078 -0.0490 -0.3374
13054WAT      O52921   2.088   7.174   6.654 -0.2477  0.4127 -0.4093
13054WAT     H152922   2.028   7.135   6.704 -0.2376  1.4444  0.4284
13054WAT     H252923   2.077   7.136   6.576 -0.0272 -1.4786  0.4353
13054WAT    EPW52924   2.078   7.162   6.650 -0.5858  0.2476  0.3677
13055WAT      O52925   5.552   3.099   4.073  0.3081  1.0485  0.6994
13055WAT     H152926   5.599   3.045   4.123 -0.9829 -0.2300  0.6041
13055WAT     H252927   5.553   3.174   4.117  1.6616  0.8164  1.1312
13055WAT    EPW52928   5.559   3.102   4.087 -0.3375 -0.1496 -0.0242
13056WAT      O52929   1.794   2.748   4.775 -0.1779 -0.0997  0.0528
13056WAT     H152930   1.817   2.814   4.722 -0.4965  0.3643  0.4837
13056WAT     H252931   1.709   2.737   4.757 -0.3088  0.1204  0.5248
13056WAT    EPW52932   1.785   2.756   4.764 -0.3651 -0.0130 -0.0301
13057WAT      O52933   2.535   4.113   2.193 -0.1865  0.3031 -0.2342
13057WAT     H152934   2.568   4.146   2.267  0.3564 -0.7828  0.0241
13057WAT     H252935   2.598   4.061   2.163  0.0247  1.4798 -2.0258
13057WAT    EPW52936   2.549   4.110   2.199  0.3491 -0.1389 -0.2101
13058WAT      O52937   2.141   1.401   2.562  0.3425 -0.1687 -0.7642
13058WAT     H152938   2.096   1.328   2.579  0.1060  0.1677  0.0778
13058WAT     H252939   2.198   1.406   2.627 -0.1985  0.8404 -0.3515
13058WAT    EPW52940   2.143   1.391   2.574  0.1511 -0.4951 -0.0025
13059WAT      O52941   3.911   5.160   2.380  0.0737  0.1144 -0.0746
13059WAT     H152942   3.931   5.209   2.310  0.6382 -0.7712 -0.5525
13059WAT     H252943   3.892   5.082   2.346 -0.0286 -0.2253  0.7360
13059WAT    EPW52944   3.911   5.156   2.364  0.2359  0.1945  0.7982
13060WAT      O52945   4.703   1.496   4.247  0.8495 -0.5967 -0.2658
13060WAT     H152946   4.624   1.500   4.211  0.3832 -1.5016  0.5803
13060WAT     H252947   4.686   1.466   4.328  2.0937 -1.2721 -0.2376
13060WAT    EPW52948   4.689   1.492   4.254 -0.2794 -0.1846  0.4196
13061WAT      O52949   6.118   7.208   6.826  0.6908 -0.2140  0.0241
13061WAT     H152950   6.049   7.246   6.864  0.3724 -1.0043  0.2610
13061WAT     H252951   6.083   7.172   6.754  0.5591 -1.7969  0.8440
13061WAT    EPW52952   6.102   7.208   6.821 -0.6183  0.6377  0.1418
13062WAT      O52953   4.679   7.407   3.486  0.1211 -0.0831 -0.2596
13062WAT     H152954   4.602   7.427   3.521  0.3846  0.3225  0.1007
13062WAT     H252955   4.736   7.449   3.537  0.4896  1.1021 -1.5803
13062WAT    EPW52956   4.676   7.416   3.499  0.5720 -0.2785 -0.1283
13063WAT      O52957   0.621   2.157   2.799  0.6376  0.4507 -0.2865
13063WAT     H152958   0.701   2.138   2.828  1.2894 -0.6748 -2.5826
13063WAT     H252959   0.588   2.079   2.777 -0.7865  0.9879 -0.1654
13063WAT    EPW52960   0.628   2.142   2.800  0.3541  0.7885  0.0018
13064WAT      O52961   1.347   2.247   0.786 -0.1355  0.5026  0.1415
13064WAT     H152962   1.422   2.217   0.818 -0.2457  0.2647  0.1772
13064WAT     H252963   1.312   2.178   0.746  0.0719  0.8347 -0.6298
13064WAT    EPW52964   1.353   2.233   0.784  0.3341 -0.0487  0.9497
13065WAT      O52965   3.968   6.039   1.414  0.3594  0.9911 -0.0964
13065WAT     H152966   4.013   6.113   1.422  1.7857  0.0706  0.8409
13065WAT     H252967   3.928   6.030   1.492  0.1364  0.8165 -0.2279
13065WAT    EPW52968   3.968   6.048   1.427 -0.3015  0.0846  0.0397
13066WAT      O52969   2.761   5.935   4.304  0.1769  0.6434 -0.7082
13066WAT     H152970   2.722   5.991   4.359 -1.1522 -0.3658 -0.5692
13066WAT     H252971   2.719   5.947   4.229  0.5767  0.5496 -0.9478
13066WAT    EPW52972   2.749   5.945   4.301 -0.1687  0.3683 -0.3569
13067WAT      O52973   5.746   2.650   4.391  0.4514 -0.2135 -0.1798
13067WAT     H152974   5.799   2.608   4.447  1.0289  0.3056 -0.3308
13067WAT     H252975   5.716   2.717   4.438  0.0715 -0.3980 -0.1554
13067WAT    EPW52976   5.749   2.653   4.406  0.9640 -0.0364  0.0599
13068WAT      O52977   5.859   4.595   0.442 -0.5511  0.2131 -0.3288
13068WAT     H152978   5.898   4.518   0.459  0.0088  0.4204 -0.6270
13068WAT     H252979   5.891   4.648   0.504 -3.7387 -0.5954  2.2761
13068WAT    EPW52980   5.870   4.591   0.454 -0.6979  0.1570  0.0170
13069WAT      O52981   1.075   4.885   2.220  0.0265  0.4436  0.0837
13069WAT     H152982   1.104   4.895   2.302  0.4278 -3.1292  0.5130
13069WAT     H252983   1.142   4.912   2.171 -0.1786  2.5058  0.8203
13069WAT    EPW52984   1.089   4.890   2.225 -0.1739 -1.2753  0.5764
13070WAT      O52985   4.930   6.115   3.669 -0.2954  0.2301 -0.2038
13070WAT     H152986   4.936   6.032   3.643  1.2195  0.4842 -0.7829
13070WAT     H252987   5.000   6.126   3.720  0.7386  1.6942 -1.8293
13070WAT    EPW52988   4.942   6.104   3.673  0.5099  0.2995 -0.2652
13071WAT      O52989   5.556   6.198   1.242  0.1718  0.0080 -0.9037
13071WAT     H152990   5.619   6.221   1.297  0.1362  1.3489 -1.3637
13071WAT     H252991   5.576   6.117   1.219  0.6449 -0.2656  0.4260
13071WAT    EPW52992   5.568   6.190   1.246  0.2635  0.4444 -0.4421
13072WAT      O52993   7.572   6.464   6.652 -0.2597  0.1284 -0.7098
13072WAT     H152994   7.517   6.447   6.717  1.3714  0.8592  0.9903
13072WAT     H252995   7.647   6.427   6.679  1.1341  2.5852 -0.8546
13072WAT    EPW52996   7.575   6.456   6.666  0.0728 -0.1473 -0.0641
13073WAT      O52997   5.942   1.373   3.907  0.0394  0.3320  0.3874
13073WAT     H152998   5.986   1.437   3.947 -1.0293  1.0672  0.4240
13073WAT     H252999   5.976   1.300   3.942  2.6230  0.7297 -0.9914
13073WAT    EPW53000   5.954   1.372   3.918 -0.1533  0.3411 -0.6562
13074WAT      O53001   6.993   7.323   1.261 -0.0432 -0.5371  0.1923
13074WAT     H153002   7.051   7.284   1.209 -0.3005  0.2154 -0.6707
13074WAT     H253003   6.924   7.336   1.209  0.0470  1.0992  0.4356
13074WAT    EPW53004   6.991   7.319   1.246  0.1560  0.3689 -0.2867
13075WAT      O53005   6.902   5.629   4.850  0.1049 -0.1150  1.5094
13075WAT     H153006   6.831   5.607   4.805  0.7214  0.1763  0.3437
13075WAT     H253007   6.890   5.593   4.929 -1.5501  0.3515  1.4996
13075WAT    EPW53008   6.890   5.621   4.855  0.1788 -0.1366 -0.2096
13076WAT      O53009   3.347   5.731   2.539  0.1945 -0.2621  0.2111
13076WAT     H153010   3.415   5.685   2.569  0.4511 -0.3160 -0.4436
13076WAT     H253011   3.301   5.749   2.611  1.3449  0.5095  0.7851
13076WAT    EPW53012   3.350   5.727   2.554  0.4994 -0.4895  0.1348
13077WAT      O53013   4.607   0.869   0.983  0.3894 -0.3435 -0.3674
13077WAT     H153014   4.659   0.798   0.980 -1.7337 -2.0929  0.8803
13077WAT     H253015   4.530   0.836   1.005 -0.6485  2.4500  0.5842
13077WAT    EPW53016   4.604   0.853   0.986  0.2169  0.2367  0.5473
13078WAT      O53017   2.632   7.075   4.837 -0.9381  0.2078 -0.4506
13078WAT     H153018   2.570   7.014   4.833 -0.2170 -0.5052 -0.9017
13078WAT     H253019   2.706   7.030   4.842 -0.2395  0.9756 -2.6564
13078WAT    EPW53020   2.634   7.059   4.837  0.7634 -0.2310 -0.5620
13079WAT      O53021   1.441   4.747   1.028 -0.1393  0.3183 -0.0340
13079WAT     H153022   1.372   4.736   0.976  0.4489 -2.2903 -0.4323
13079WAT     H253023   1.489   4.807   0.988 -0.7902  0.0167 -1.3063
13079WAT    EPW53024   1.438   4.754   1.015  0.0220  0.0561  0.0767
13080WAT      O53025   1.373   2.703   6.413 -0.4584 -0.6910 -0.7942
13080WAT     H153026   1.301   2.744   6.386 -1.7109 -1.4738  1.1436
13080WAT     H253027   1.418   2.766   6.454 -2.1649 -1.0093  1.7801
13080WAT    EPW53028   1.369   2.719   6.415 -0.1428  0.3645  0.8829
13081WAT      O53029   7.352   1.180   0.165  0.2791 -0.6845  0.0380
13081WAT     H153030   7.393   1.225   0.228 -0.8014  0.0344  0.2609
13081WAT     H253031   7.385   1.100   0.172  2.0607 -0.0151 -0.1783
13081WAT    EPW53032   7.363   1.175   0.176 -0.2128  0.3889 -0.7681
13082WAT      O53033   4.371   4.955   3.846  0.0208  0.2058  0.7691
13082WAT     H153034   4.409   5.033   3.844  0.1808  0.1196 -0.1798
13082WAT     H253035   4.320   4.958   3.916  0.1199  1.1186  0.8060
13082WAT    EPW53036   4.369   4.967   3.856  0.7558  0.1164 -0.4737
13083WAT      O53037   7.351   5.848   5.506  0.0207  0.4545  0.0641
13083WAT     H153038   7.437   5.858   5.499 -0.0376  0.5495 -0.6336
13083WAT     H253039   7.340   5.814   5.585  0.5501  2.0773  0.8630
13083WAT    EPW53040   7.362   5.845   5.516 -0.0804 -0.6517 -0.6995
13084WAT      O53041   2.306   3.272   1.861  0.0579  0.3072  0.3411
13084WAT     H153042   2.387   3.294   1.887  0.7423 -0.8931 -0.6538
13084WAT     H253043   2.300   3.309   1.782 -0.2450  0.1226  0.2799
13084WAT    EPW53044   2.317   3.281   1.853  0.2280 -0.1915 -0.7475
13085WAT      O53045   0.288   1.115   1.870 -0.5717  1.0734  0.6704
13085WAT     H153046   0.238   1.088   1.936 -1.1782  1.1735  0.2592
13085WAT     H253047   0.234   1.165   1.822  0.3273  2.4400  1.0354
13085WAT    EPW53048   0.273   1.118   1.872  0.4287  0.2278  0.2619
13086WAT      O53049   5.718   4.286   2.761 -0.1622 -0.6597  0.3555
13086WAT     H153050   5.653   4.343   2.772 -0.4592 -1.0437  0.5876
13086WAT     H253051   5.743   4.300   2.679  0.1898  0.2440  0.6038
13086WAT    EPW53052   5.712   4.297   2.750  0.0219  0.2601  0.3620
13087WAT      O53053   7.034   5.280   6.504  0.8524  0.3879 -0.2293
13087WAT     H153054   7.060   5.354   6.543  0.5160  0.5097 -0.2326
13087WAT     H253055   7.079   5.280   6.429  1.1561  0.3833 -0.0490
13087WAT    EPW53056   7.045   5.291   6.499 -0.5370  0.3385  0.3462
13088WAT      O53057   5.773   4.795   7.158 -0.3975  0.0845 -0.5564
13088WAT     H153058   5.742   4.784   7.238  2.2511 -0.7362  0.4792
13088WAT     H253059   5.775   4.882   7.148 -2.3886  0.1735 -0.5082
13088WAT    EPW53060   5.769   4.807   7.168 -0.0716 -0.2630  0.3982
13089WAT      O53061   1.516   4.811   2.485  0.7526 -0.7631 -0.3250
13089WAT     H153062   1.472   4.885   2.501  1.8220  0.2437 -1.7647
13089WAT     H253063   1.511   4.768   2.561 -0.4302  0.4954  0.3667
13089WAT    EPW53064   1.509   4.816   2.499  1.0481 -0.1178 -0.0291
13090WAT      O53065   7.210   5.301   0.783 -0.0864  0.0029 -0.7543
13090WAT     H153066   7.229   5.288   0.698 -1.8558 -0.9413 -1.0554
13090WAT     H253067   7.180   5.383   0.784  2.6033  1.0893 -0.4693
13090WAT    EPW53068   7.208   5.311   0.770  0.3816  0.0181  0.0593
13091WAT      O53069   4.156   0.666   4.426  0.1065 -0.6235 -0.1377
13091WAT     H153070   4.106   0.722   4.382 -1.3983 -1.7579  0.0475
13091WAT     H253071   4.150   0.693   4.509 -2.6870 -2.3803  0.3728
13091WAT    EPW53072   4.148   0.678   4.432  0.1600  0.1927  0.4117
13092WAT      O53073   5.270   4.082   0.815 -0.1860  0.1820 -0.1615
13092WAT     H153074   5.282   4.157   0.857  0.3921 -0.1635  0.3035
13092WAT     H253075   5.347   4.042   0.821 -0.7262 -0.8415  0.3782
13092WAT    EPW53076   5.283   4.087   0.822 -0.0306 -0.2710 -0.3741
13093WAT      O53077   1.314   6.124   1.287  0.2208  0.0929  0.4169
13093WAT     H153078   1.374   6.098   1.229  0.2731  0.1777  0.4335
13093WAT     H253079   1.250   6.065   1.278  0.6290 -0.4429  0.9252
13093WAT    EPW53080   1.313   6.111   1.277 -0.1739  0.3030  0.1111
13094WAT      O53081   7.429   3.112   2.673 -0.0434 -0.0085 -0.0651
13094WAT     H153082   7.408   3.190   2.707  0.7502  0.5702 -0.8630
13094WAT     H253083   7.485   3.079   2.732 -0.3045  0.0570  0.2250
13094WAT    EPW53084   7.435   3.119   2.687 -0.1075  0.4655  0.1466
13095WAT      O53085   6.287   5.834   1.038 -0.0512  0.1480  0.0133
13095WAT     H153086   6.250   5.834   0.959  1.3596  2.7964 -0.7716
13095WAT     H253087   6.232   5.881   1.087  0.7355  1.5164 -0.3691
13095WAT    EPW53088   6.274   5.841   1.034  0.4473  0.2514  0.1497
13096WAT      O53089   6.241   3.929   2.932  0.1489  0.0323 -0.5224
13096WAT     H153090   6.245   3.894   2.852 -0.9364  0.0613 -0.5969
13096WAT     H253091   6.241   4.015   2.918  1.6193  0.0829 -0.3931
13096WAT    EPW53092   6.242   3.936   2.918  0.7685  0.1014  1.1329
13097WAT      O53093   2.219   1.712   2.754 -0.1569 -0.4425 -0.0754
13097WAT     H153094   2.188   1.761   2.820 -1.2342 -1.1407 -0.0340
13097WAT     H253095   2.195   1.631   2.776  1.3506 -0.9696 -0.2820
13097WAT    EPW53096   2.211   1.707   2.767  0.6891  0.1620 -0.3088
13098WAT      O53097   3.048   5.155   6.089  0.6481  0.2761  0.4338
13098WAT     H153098   3.048   5.169   6.003 -0.7715  1.7129  0.6221
13098WAT     H253099   3.078   5.073   6.097  2.9450  0.8592 -1.2373
13098WAT    EPW53100   3.052   5.145   6.078  0.5255  0.4282  0.6046
13099WAT      O53101   7.481   1.459   3.608 -0.0041 -0.6398 -0.3801
13099WAT     H153102   7.504   1.447   3.691 -0.9037 -2.2289 -0.3280
13099WAT     H253103   7.449   1.382   3.584 -1.5304  0.3076 -1.6207
13099WAT    EPW53104   7.479   1.446   3.617 -0.8341 -0.2201  0.4238
13100WAT      O53105   4.253   2.278   2.165 -0.8512  0.4528 -0.2526
13100WAT     H153106   4.293   2.203   2.144 -0.2177  0.8177 -0.4111
13100WAT     H253107   4.319   2.329   2.191 -1.1645  1.1840 -0.8333
13100WAT    EPW53108   4.269   2.274   2.165 -0.0445 -0.4566 -0.0035
13101WAT      O53109   6.124   7.049   3.155  0.2190 -0.1909  0.0110
13101WAT     H153110   6.045   7.028   3.123  0.2329  3.8129 -3.6752
13101WAT     H253111   6.179   7.003   3.106  0.1657  0.3794 -0.5963
13101WAT    EPW53112   6.120   7.039   3.143 -0.0920  0.3082  0.6316
13102WAT      O53113   7.416   0.873   0.135  0.2648  0.1041  0.4838
13102WAT     H153114   7.449   0.798   0.164  0.2504  0.5121  1.6081
13102WAT     H253115   7.396   0.856   0.052 -0.2204 -1.2970  0.8574
13102WAT    EPW53116   7.418   0.859   0.127 -0.0487  0.2565  0.2736
13103WAT      O53117   2.543   3.794   5.702  0.8366  0.3570  0.0904
13103WAT     H153118   2.551   3.834   5.779  2.1573  0.8348 -0.2682
13103WAT     H253119   2.602   3.834   5.652  0.8713 -0.7756 -0.8195
13103WAT    EPW53120   2.553   3.806   5.706 -0.4123  0.1494  0.0685
13104WAT      O53121   2.544   1.165   1.451  0.3082 -0.3560  0.2368
13104WAT     H153122   2.468   1.182   1.412  0.3334  1.3090  0.8383
13104WAT     H253123   2.603   1.182   1.389  0.2423 -0.1627  0.2255
13104WAT    EPW53124   2.541   1.170   1.436  0.0539  0.2599  0.1111
13105WAT      O53125   5.638   1.848   5.578 -0.4887  0.4466  0.2321
13105WAT     H153126   5.587   1.911   5.611 -0.6250 -0.3240  1.5373
13105WAT     H253127   5.717   1.868   5.608 -0.2416  0.8819 -0.6821
13105WAT    EPW53128   5.642   1.861   5.587  0.0837  0.3427  0.4654
13106WAT      O53129   2.328   7.130   3.157 -0.3947 -0.2060  0.1874
13106WAT     H153130   2.267   7.151   3.216 -0.9068 -0.7435 -0.1385
13106WAT     H253131   2.352   7.050   3.181  2.4213  1.0472  2.1707
13106WAT    EPW53132   2.323   7.121   3.169  0.1920 -0.8598 -0.4409
13107WAT      O53133   4.195   5.714   6.018  0.2105  0.3061 -0.4550
13107WAT     H153134   4.197   5.801   6.031 -1.5855  0.3802 -0.4170
13107WAT     H253135   4.163   5.707   5.938 -1.1537 -0.3257  0.1232
13107WAT    EPW53136   4.191   5.726   6.008 -0.4658 -0.2416 -0.5805
13108WAT      O53137   5.920   6.946   2.614  0.5188 -0.3295 -0.1351
13108WAT     H153138   5.864   6.888   2.580  0.8145 -0.7775  0.1284
13108WAT     H253139   5.890   7.023   2.586  0.8522 -0.6890 -1.5538
13108WAT    EPW53140   5.907   6.949   2.605 -0.1218 -0.0175  0.1045
13109WAT      O53141   0.603   6.967   0.395 -0.8317 -0.0698 -0.7735
13109WAT     H153142   0.652   6.988   0.326  2.5851 -1.6021  0.9652
13109WAT     H253143   0.581   6.884   0.379  0.7731 -0.7458  0.2867
13109WAT    EPW53144   0.607   6.958   0.382  0.0788  0.0580  0.8022
13110WAT      O53145   1.621   2.430   4.947  0.1873  0.0520  0.3299
13110WAT     H153146   1.559   2.435   4.885  1.3770 -0.1176 -0.9310
13110WAT     H253147   1.618   2.509   4.984 -0.5056  0.1895  0.0153
13110WAT    EPW53148   1.611   2.443   4.943 -0.1551 -0.3234 -0.1849
13111WAT      O53149   4.853   0.674   0.960 -0.1376 -0.1859  0.3871
13111WAT     H153150   4.907   0.737   0.932 -2.2606  1.6206  0.0802
13111WAT     H253151   4.847   0.689   1.045  0.0275 -0.5708  0.4702
13111WAT    EPW53152   4.860   0.686   0.968 -0.2643 -0.4950 -0.4083
13112WAT      O53153   7.069   0.564   1.714 -0.0524 -0.0283 -0.0108
13112WAT     H153154   7.146   0.600   1.730 -0.1398  0.6843 -1.0543
13112WAT     H253155   7.060   0.572   1.627 -2.1939  1.8279  0.2792
13112WAT    EPW53156   7.079   0.571   1.703  0.4405 -0.1057  0.1664
13113WAT      O53157   5.589   1.964   7.037 -0.9507  0.2483  0.5823
13113WAT     H153158   5.505   1.957   7.015 -1.2560  0.2985  1.6772
13113WAT     H253159   5.629   1.913   6.979 -1.5757  1.2235 -0.7723
13113WAT    EPW53160   5.582   1.956   7.025  0.4706 -0.0342  0.5761
13114WAT      O53161   6.348   2.565   3.027 -0.2027  0.4204 -0.0512
13114WAT     H153162   6.316   2.646   3.019 -0.3818  0.3355 -0.2154
13114WAT     H253163   6.431   2.572   3.002 -0.3959  0.4251 -0.7023
13114WAT    EPW53164   6.355   2.578   3.022  0.2477 -0.0431  0.2047
13115WAT      O53165   0.261   4.898   0.192  0.1319 -0.1549  0.2607
13115WAT     H153166   0.184   4.913   0.231 -0.3961 -0.1056 -0.7696
13115WAT     H253167   0.245   4.831   0.139  1.1441 -0.9828  0.9623
13115WAT    EPW53168   0.247   4.891   0.190  0.2112  0.3124  0.0716
13116WAT      O53169   4.042   6.942   3.492 -0.3867 -0.0427  0.4105
13116WAT     H153170   4.116   6.905   3.520  0.3866  0.3297 -1.0503
13116WAT     H253171   3.991   6.874   3.471  0.0543 -0.2944  0.1516
13116WAT    EPW53172   4.045   6.926   3.493 -0.6283  0.0096  0.3402
13117WAT      O53173   6.529   0.850   5.668  0.7859 -0.4152 -0.6322
13117WAT     H153174   6.530   0.784   5.725  1.1095  0.9880  1.0996
13117WAT     H253175   6.461   0.832   5.617  0.5298 -1.8036  0.1503
13117WAT    EPW53176   6.519   0.838   5.669  0.2776  0.6372  0.7872
13118WAT      O53177   5.623   4.646   6.599  0.4048 -0.3136 -0.2284
13118WAT     H153178   5.650   4.642   6.516  1.4297 -0.1693  0.0801
13118WAT     H253179   5.599   4.729   6.608  0.0564 -0.3884 -0.4465
13118WAT    EPW53180   5.623   4.658   6.588  0.5337  0.5047  1.2492
13119WAT      O53181   4.736   0.924   3.892 -0.0419  0.3824 -0.3314
13119WAT     H153182   4.793   0.930   3.958 -0.9278  4.0678  0.3267
13119WAT     H253183   4.781   0.956   3.824 -0.3478  0.2880 -0.5805
13119WAT    EPW53184   4.751   0.930   3.891 -0.5597  0.0547 -0.4766
13120WAT      O53185   0.493   0.180   2.301  0.1229  0.3259  0.6064
13120WAT     H153186   0.558   0.233   2.279  0.2220  1.2393  2.8308
13120WAT     H253187   0.437   0.187   2.235  2.1472 -0.4036 -1.3351
13120WAT    EPW53188   0.495   0.189   2.288 -0.5219 -0.1904  0.1448
13121WAT      O53189   1.623   3.547   2.994 -0.0367  0.0544 -0.5155
13121WAT     H153190   1.690   3.603   2.988 -0.3209  0.2839 -1.8512
13121WAT     H253191   1.648   3.491   3.056  0.8568  0.8484 -0.1402
13121WAT    EPW53192   1.636   3.547   3.002  0.1486 -0.1310 -0.3090
13122WAT      O53193   7.465   1.986   1.893 -0.5706 -0.4337 -0.1410
13122WAT     H153194   7.430   1.952   1.965  0.2098 -0.9163  0.0200
13122WAT     H253195   7.439   1.933   1.830  1.6495 -2.1486  0.2604
13122WAT    EPW53196   7.456   1.973   1.894  0.2475  0.7160  0.2830
13123WAT      O53197   5.255   1.543   5.012  0.2233  0.9884  0.4016
13123WAT     H153198   5.258   1.474   5.064  0.6053  1.4364  0.9846
13123WAT     H253199   5.321   1.532   4.957 -0.7493  0.0361 -0.6214
13123WAT    EPW53200   5.265   1.531   5.011  0.2459 -0.0309 -0.4823
13124WAT      O53201   1.504   6.498   5.233 -0.7445  0.7257 -0.2586
13124WAT     H153202   1.515   6.459   5.156 -3.4834 -0.3017 -0.2297
13124WAT     H253203   1.481   6.580   5.211 -2.0063  0.3036 -0.5991
13124WAT    EPW53204   1.502   6.504   5.218  0.0979 -0.0220 -0.3892
13125WAT      O53205   2.895   2.952   1.775  0.2034 -0.0167  0.7061
13125WAT     H153206   2.839   2.954   1.842  0.5655  0.0355  1.0041
13125WAT     H253207   2.973   2.944   1.813  0.4080 -0.0074  0.2904
13125WAT    EPW53208   2.898   2.951   1.790  0.1369  0.5247  0.2093
13126WAT      O53209   7.240   7.390   4.221 -0.1511 -0.1124  0.2018
13126WAT     H153210   7.188   7.347   4.166 -0.0223  1.2963 -1.1163
13126WAT     H253211   7.190   7.454   4.251  0.1696 -0.0895  0.6975
13126WAT    EPW53212   7.225   7.393   4.217 -0.3010 -0.8342  0.5825
13127WAT      O53213   2.479   6.344   2.890 -0.1523  0.2189  0.1825
13127WAT     H153214   2.433   6.362   2.962  1.6241  1.3361  1.1120
13127WAT     H253215   2.516   6.267   2.908  1.7608  1.3350  1.3245
13127WAT    EPW53216   2.477   6.336   2.904  0.1261  0.7255 -0.3568
13128WAT      O53217   1.801   5.293   7.496  0.2216 -0.3601  0.1438
13128WAT     H153218   1.720   5.322   7.506  0.1306 -0.6277  0.1666
13128WAT     H253219   1.828   5.333   7.423  0.1970  0.0135  0.3358
13128WAT    EPW53220   1.793   5.303   7.486 -0.2732  0.1599  0.0664
13129WAT      O53221   1.027   4.443   4.813 -0.1486 -0.0558 -0.3736
13129WAT     H153222   1.046   4.527   4.801 -0.8108  0.1126 -0.2663
13129WAT     H253223   1.097   4.412   4.854 -0.7822  0.9276  1.5421
13129WAT    EPW53224   1.040   4.451   4.817  0.0635 -0.1334  0.0013
13130WAT      O53225   3.524   3.985   0.983 -0.5414  0.7284  0.2039
13130WAT     H153226   3.441   4.008   0.969 -0.7123  0.8641  1.3206
13130WAT     H253227   3.518   3.920   1.041  0.1070  0.3750 -0.1153
13130WAT    EPW53228   3.511   3.979   0.990 -0.1336  0.0247 -0.2260
13131WAT      O53229   5.102   3.966   1.016  0.4390 -0.3180  0.3788
13131WAT     H153230   5.137   4.011   0.950 -1.4718 -1.0480 -1.2177
13131WAT     H253231   5.165   3.911   1.039  2.4716  2.2950  1.6895
13131WAT    EPW53232   5.116   3.965   1.010 -0.0701 -0.3077 -0.6882
13132WAT      O53233   1.429   7.596   4.676 -0.1471  0.7538 -0.1451
13132WAT     H153234   1.408   7.514   4.655  2.0364 -0.1847  1.0638
13132WAT     H253235   1.481   7.587   4.745 -1.1839  3.2928  1.0929
13132WAT    EPW53236   1.433   7.583   4.683  0.1712  0.3048 -0.0441
13133WAT      O53237   2.769   6.101   5.224 -0.1587 -0.0999  0.1754
13133WAT     H153238   2.805   6.048   5.283 -1.4644  0.0448  1.1543
13133WAT     H253239   2.797   6.180   5.247 -2.4848  0.2657  2.1476
13133WAT    EPW53240   2.778   6.104   5.236  0.7012  0.2890  0.3476
13134WAT      O53241   1.617   3.577   5.401  0.3920  0.0140  0.0074
13134WAT     H153242   1.618   3.490   5.394  0.4669 -0.1643  1.7653
13134WAT     H253243   1.699   3.600   5.384  0.0689 -0.0937 -1.8529
13134WAT    EPW53244   1.629   3.567   5.397  0.7296  0.0384  0.0570
13135WAT      O53245   7.344   5.960   3.680 -0.3243 -0.5294 -0.5743
13135WAT     H153246   7.377   5.937   3.603  1.6537 -2.0757  0.6404
13135WAT     H253247   7.282   5.900   3.694 -1.3827  0.3420 -1.3412
13135WAT    EPW53248   7.340   5.948   3.671  0.9326 -0.0972  0.7419
13136WAT      O53249   4.596   4.455   6.015  0.5306 -0.5795 -0.2377
13136WAT     H153250   4.563   4.510   6.074 -2.5984 -0.7306 -1.6516
13136WAT     H253251   4.569   4.377   6.043 -1.7205 -0.5803 -2.1598
13136WAT    EPW53252   4.587   4.452   6.028  0.2677  0.6039 -0.1619
13137WAT      O53253   0.598   0.547   6.801 -0.6185 -0.7536 -0.3806
13137WAT     H153254   0.621   0.463   6.802 -2.2189 -1.2477  1.3468
13137WAT     H253255   0.650   0.582   6.740  0.9999 -2.7159 -0.2381
13137WAT    EPW53256   0.609   0.540   6.792  0.1649 -0.0454 -0.1928
13138WAT      O53257   6.872   5.282   1.769  0.1988 -0.2652 -0.1493
13138WAT     H153258   6.924   5.277   1.699 -0.4485 -1.1804 -0.5869
13138WAT     H253259   6.838   5.201   1.775 -0.2662 -0.0143  0.8252
13138WAT    EPW53260   6.875   5.269   1.760 -0.1517  0.2320  0.2132
13139WAT      O53261   6.329   5.470   5.355 -0.4678  0.0438 -0.3629
13139WAT     H153262   6.272   5.506   5.300  0.0961  1.5143 -0.0474
13139WAT     H253263   6.400   5.458   5.306 -0.4254  0.0418 -0.3019
13139WAT    EPW53264   6.331   5.474   5.340  0.8036  0.8254  0.2706
13140WAT      O53265   1.243   6.021   4.907 -0.1988  0.2804 -0.3184
13140WAT     H153266   1.240   5.974   4.834  0.4296 -0.6773  0.2645
13140WAT     H253267   1.230   5.962   4.970  2.5663  0.5058  0.5636
13140WAT    EPW53268   1.241   6.006   4.905 -0.1240 -0.4125  0.7684
13141WAT      O53269   1.459   7.426   0.826  0.2054 -0.0511  0.1579
13141WAT     H153270   1.474   7.509   0.849  0.1450  0.0117 -0.0270
13141WAT     H253271   1.539   7.392   0.820  0.1849 -0.3733  1.5679
13141WAT    EPW53272   1.473   7.433   0.828  0.2166  0.3688  0.1010
13142WAT      O53273   2.943   6.793   1.857  0.2682 -0.0672  0.0997
13142WAT     H153274   2.896   6.799   1.784  0.5542  0.3187 -0.0600
13142WAT     H253275   3.025   6.795   1.828  0.4758  2.8482  0.5568
13142WAT    EPW53276   2.948   6.794   1.842  0.6107  0.0959  0.1833
13143WAT      O53277   3.961   2.466   0.917 -0.0512 -0.2742  0.3390
13143WAT     H153278   3.899   2.433   0.865  0.7893  0.0737 -0.9472
13143WAT     H253279   4.027   2.409   0.908  0.4539  0.3131  0.2227
13143WAT    EPW53280   3.962   2.453   0.908  0.2674 -0.0624  0.5020
13144WAT      O53281   5.549   0.578   0.676 -0.8135  0.4006  0.0838
13144WAT     H153282   5.632   0.555   0.689 -0.8992  0.5724  1.0814
13144WAT     H253283   5.514   0.508   0.637 -0.5203 -0.2288  0.9155
13144WAT    EPW53284   5.556   0.564   0.672  0.7088  0.0750  0.5312
13145WAT      O53285   1.637   3.217   6.565 -0.0223 -0.3294 -0.0996
13145WAT     H153286   1.576   3.178   6.516 -0.3995  2.4879 -2.1893
13145WAT     H253287   1.618   3.191   6.646 -2.3741 -1.5923 -0.9512
13145WAT    EPW53288   1.625   3.208   6.570 -0.2310 -0.1179  0.2544
13146WAT      O53289   3.303   0.474   0.585 -0.1363 -0.0720  0.1109
13146WAT     H153290   3.370   0.530   0.581  0.0874 -0.1134  2.0436
13146WAT     H253291   3.254   0.495   0.517 -0.6926  3.3620  1.3767
13146WAT    EPW53292   3.306   0.485   0.575 -0.3101 -0.7461 -0.7029
13147WAT      O53293   1.228   3.085   6.548 -0.0097 -0.3338 -0.0953
13147WAT     H153294   1.237   3.007   6.510 -2.1062 -0.2607 -0.8424
13147WAT     H253295   1.243   3.068   6.633 -0.4671 -1.5437 -0.2371
13147WAT    EPW53296   1.232   3.071   6.555 -0.2070  0.0225  0.3558
13148WAT      O53297   3.585   1.706   5.705 -0.0504 -0.2139 -0.0075
13148WAT     H153298   3.615   1.636   5.748  1.7753  2.9019  4.6743
13148WAT     H253299   3.498   1.701   5.716 -0.0587 -2.1704 -0.6980
13148WAT    EPW53300   3.576   1.695   5.713  0.1004 -0.1693  0.1880
13149WAT      O53301   7.555   3.163   5.527 -0.2855 -0.0810 -0.0775
13149WAT     H153302   7.529   3.187   5.447  0.1662 -0.5889 -0.3829
13149WAT     H253303   7.640   3.147   5.517  0.3941  2.3675  1.1004
13149WAT    EPW53304   7.564   3.164   5.514  0.4627 -0.9059 -0.1580
13150WAT      O53305   3.347   0.881   6.939  0.3033 -0.6403  0.2245
13150WAT     H153306   3.355   0.847   6.859  1.0293 -1.6984  0.7352
13150WAT     H253307   3.407   0.839   6.986  0.4051  0.4972  1.1680
13150WAT    EPW53308   3.357   0.870   6.934  0.1606 -0.0533 -0.4659
13151WAT      O53309   3.494   6.264   0.740 -0.8735  0.0048 -0.2208
13151WAT     H153310   3.512   6.185   0.771 -0.8401  0.1490  0.1263
13151WAT     H253311   3.503   6.316   0.809  2.1614  0.7796 -1.0367
13151WAT    EPW53312   3.498   6.260   0.754 -0.3137  0.4247  0.1010
13152WAT      O53313   0.170   5.264   4.435  0.3928 -0.8660  0.0677
13152WAT     H153314   0.090   5.297   4.432  0.9341  0.4201 -1.9005
13152WAT     H253315   0.215   5.322   4.481  0.3613 -1.1959  0.5150
13152WAT    EPW53316   0.165   5.277   4.441 -0.6798  0.0343 -0.0958
13153WAT      O53317   0.344   2.872   2.049  0.1609  0.4997 -0.1844
13153WAT     H153318   0.263   2.842   2.063  0.5510 -0.5942 -0.1893
13153WAT     H253319   0.332   2.937   1.992 -0.7186  0.3792 -0.1496
13153WAT    EPW53320   0.330   2.877   2.043 -0.0488  0.3155  0.2684
13154WAT      O53321   6.565   0.929   7.422  0.3612 -0.1671  0.1989
13154WAT     H153322   6.631   0.921   7.364 -1.7597  0.4839 -2.5286
13154WAT     H253323   6.536   1.010   7.408 -3.3854 -1.5736 -1.6802
13154WAT    EPW53324   6.571   0.939   7.411 -0.1163  0.3069  0.6470
13155WAT      O53325   6.116   4.566   1.451  0.0856  0.0953 -0.1112
13155WAT     H153326   6.142   4.649   1.444  2.6013 -0.5178  1.0910
13155WAT     H253327   6.188   4.523   1.475 -0.9492 -2.5911 -1.3513
13155WAT    EPW53328   6.130   4.572   1.453  0.3719 -0.3808 -0.0350
13156WAT      O53329   5.535   6.692   2.650  0.3513  0.2019  0.5057
13156WAT     H153330   5.619   6.699   2.671  0.2327  2.5425  0.3990
13156WAT     H253331   5.500   6.651   2.719  1.1250  1.6797  1.8308
13156WAT    EPW53332   5.542   6.687   2.663  0.2604  0.0481 -0.0494
13157WAT      O53333   5.448   2.840   6.945 -0.1944 -0.2673  0.6999
13157WAT     H153334   5.400   2.823   7.016 -2.4196 -0.1903 -0.6845
13157WAT     H253335   5.452   2.927   6.942  0.8705 -0.2901  1.3268
13157WAT    EPW53336   5.441   2.850   6.955  0.6603  0.0124  0.1121
13158WAT      O53337   3.460   0.856   1.916  0.0770  0.0628 -0.3000
13158WAT     H153338   3.542   0.876   1.896  0.5525  0.5166  1.8512
13158WAT     H253339   3.413   0.914   1.871  0.9074 -0.2617 -1.6284
13158WAT    EPW53340   3.465   0.868   1.906 -0.2491  0.1238  0.1875
13159WAT      O53341   2.168   4.425   3.860  0.2644 -0.0871  0.0490
13159WAT     H153342   2.132   4.470   3.926  0.9011  0.9371 -0.2731
13159WAT     H253343   2.139   4.344   3.873 -0.3454  0.2638  1.0720
13159WAT    EPW53344   2.158   4.420   3.872 -0.0650 -0.0798  0.1858
13160WAT      O53345   0.541   5.362   5.759  0.1708  0.6290  0.3066
13160WAT     H153346   0.455   5.372   5.769  0.1355  0.8051 -0.1454
13160WAT     H253347   0.549   5.280   5.731  0.3554 -0.2694  2.6973
13160WAT    EPW53348   0.529   5.352   5.756 -0.0014 -0.3150  0.1131
13161WAT      O53349   0.047   6.938   3.730  0.3432 -1.3155  0.8403
13161WAT     H153350  -0.014   6.901   3.780  0.1105 -1.5570  0.3867
13161WAT     H253351   0.080   7.002   3.780 -1.2091 -0.3050  0.6190
13161WAT    EPW53352   0.043   6.942   3.744  0.0587  0.3290 -0.3462
13162WAT      O53353   5.107   1.984   1.357  0.3454 -0.2168  0.8233
13162WAT     H153354   5.089   2.035   1.426  0.3410 -0.5554  1.0770
13162WAT     H253355   5.191   1.999   1.342  0.6430 -0.9865  1.6225
13162WAT    EPW53356   5.116   1.994   1.365  0.4433 -0.4278  0.5339
13163WAT      O53357   0.614   5.885   0.630  0.6792  0.1584 -0.6300
13163WAT     H153358   0.622   5.827   0.695  2.5883 -0.3034 -1.2064
13163WAT     H253359   0.537   5.865   0.595 -0.0441 -0.0735  0.9988
13163WAT    EPW53360   0.604   5.873   0.635  0.2486  0.1246 -0.0518
13164WAT      O53361   0.041   5.563   4.986 -0.2606  0.3818 -0.8082
13164WAT     H153362   0.072   5.630   5.033  1.4452 -0.6643 -0.3868
13164WAT     H253363   0.076   5.576   4.907 -0.1342  0.1208 -0.7946
13164WAT    EPW53364   0.051   5.575   4.981 -0.4100  0.4880  0.2760
13165WAT      O53365   3.513   3.110   1.714  0.0416  0.1515 -0.0136
13165WAT     H153366   3.572   3.122   1.776 -0.6394 -1.0541  0.9103
13165WAT     H253367   3.542   3.160   1.648  1.4549  0.4615  0.8015
13165WAT    EPW53368   3.526   3.119   1.713 -0.4503 -0.4239 -0.3921
13166WAT      O53369   5.866   4.119   4.276  0.8722  0.0516  0.4582
13166WAT     H153370   5.894   4.092   4.198 -0.8463 -0.5530  0.0095
13166WAT     H253371   5.837   4.047   4.315  1.7967  0.3295  1.7216
13166WAT    EPW53372   5.866   4.105   4.270 -0.8509 -0.0644 -0.0768
13167WAT      O53373   0.040   5.184   1.453  0.5245 -0.1569  0.0996
13167WAT     H153374   0.116   5.151   1.481  0.3076 -0.7472  0.0008
13167WAT     H253375   0.010   5.123   1.399 -0.3986 -0.2923  0.7416
13167WAT    EPW53376   0.047   5.170   1.450 -0.1015  0.4042  0.1587
13168WAT      O53377   4.082   2.536   6.451 -0.2564 -0.0886  0.2607
13168WAT     H153378   4.076   2.526   6.364 -1.1956 -0.6001  0.3719
13168WAT     H253379   4.162   2.571   6.462 -0.6912  1.3918 -0.9186
13168WAT    EPW53380   4.093   2.540   6.440 -0.8469 -0.1491  0.6986
13169WAT      O53381   2.240   1.138   3.375 -0.0046 -0.1567  0.6951
13169WAT     H153382   2.264   1.203   3.428  0.6095 -0.3314  0.6295
13169WAT     H253383   2.298   1.076   3.391 -0.4850 -0.6310  0.6237
13169WAT    EPW53384   2.252   1.139   3.385 -0.8705 -0.8256 -0.0809
13170WAT      O53385   6.792   3.908   4.210  0.7194  0.3199  0.1440
13170WAT     H153386   6.721   3.958   4.215 -0.5890 -1.0090 -2.7823
13170WAT     H253387   6.773   3.841   4.263  0.2349  0.4888  0.1922
13170WAT    EPW53388   6.779   3.905   4.219 -0.3948 -0.2506 -0.5290
13171WAT      O53389   6.399   7.005   4.121 -0.2291 -0.4498  0.3752
13171WAT     H153390   6.320   7.023   4.088 -0.1673 -1.6005 -0.4586
13171WAT     H253391   6.381   6.957   4.191 -0.3417  1.6502  1.8987
13171WAT    EPW53392   6.385   7.001   4.126  0.4910  0.2762  0.0351
13172WAT      O53393   6.637   6.607   2.525  0.0279  0.6695  0.1287
13172WAT     H153394   6.660   6.687   2.551 -0.2756  1.2514 -1.2981
13172WAT     H253395   6.550   6.607   2.532  0.1270 -0.8136  3.5148
13172WAT    EPW53396   6.628   6.618   2.530 -0.4554 -0.0512  0.7316
13173WAT      O53397   5.085   5.332   6.501 -0.1571 -0.1550 -0.3302
13173WAT     H153398   5.144   5.378   6.457 -0.5001  0.4433 -0.1648
13173WAT     H253399   5.125   5.256   6.515  0.6991  0.3532  0.0544
13173WAT    EPW53400   5.100   5.327   6.497 -0.1829  0.1412  0.1875
13174WAT      O53401   6.790   1.986   0.756  0.3915 -0.5840 -0.3944
13174WAT     H153402   6.734   1.924   0.781  1.4113 -1.4790 -0.2618
13174WAT     H253403   6.774   2.051   0.812 -1.9628  0.0441 -1.6769
13174WAT    EPW53404   6.780   1.986   0.768 -0.3646 -0.1810 -0.3462
13175WAT      O53405   5.330   7.402   0.979 -0.8060  0.7156  0.3014
13175WAT     H153406   5.328   7.481   1.016  0.0497  0.6346  0.5424
13175WAT     H253407   5.250   7.371   0.992 -0.7758  1.0367  1.3452
13175WAT    EPW53408   5.318   7.409   0.986  0.2986  0.0576  0.0349
13176WAT      O53409   7.422   0.066   2.293 -0.4105 -0.4069  0.3058
13176WAT     H153410   7.493   0.073   2.344  0.9917 -0.3033 -1.5527
13176WAT     H253411   7.373   0.134   2.316  1.9508  1.9356 -1.0342
13176WAT    EPW53412   7.426   0.077   2.304  0.0193  0.6028 -0.3283
13177WAT      O53413   2.246   5.868   0.785 -0.5326  0.5899 -0.6276
13177WAT     H153414   2.242   5.791   0.826 -1.8526  1.1277  0.3038
13177WAT     H253415   2.323   5.865   0.744 -0.5987 -1.2611 -0.7035
13177WAT    EPW53416   2.257   5.856   0.785 -0.1321  0.7253 -0.2222
13178WAT      O53417   1.113   6.725   0.281 -0.2426  0.6048 -0.0849
13178WAT     H153418   1.136   6.752   0.360 -0.2691  1.7944 -0.4594
13178WAT     H253419   1.183   6.742   0.232 -0.2271 -0.1148 -0.3310
13178WAT    EPW53420   1.127   6.731   0.285 -0.4063 -0.6000 -0.1212
13179WAT      O53421   6.341   0.695   2.296 -0.3235 -0.0834  0.2225
13179WAT     H153422   6.358   0.747   2.364  0.8896 -1.3787  0.9424
13179WAT     H253423   6.353   0.747   2.227  2.6128  0.2014  0.8404
13179WAT    EPW53424   6.345   0.711   2.296  0.1588 -0.0330 -0.1143
13180WAT      O53425   4.733   1.663   5.127 -0.0101  0.3434 -0.5728
13180WAT     H153426   4.662   1.692   5.086 -0.1941 -1.1518 -1.3591
13180WAT     H253427   4.781   1.736   5.136 -1.4129  1.2984 -0.4236
13180WAT    EPW53428   4.730   1.678   5.122 -0.7987  0.6246 -0.3622
13181WAT      O53429   0.521   6.720   7.444 -0.0873  0.2843 -0.0272
13181WAT     H153430   0.582   6.662   7.421 -0.1884 -0.2751  1.0375
13181WAT     H253431   0.522   6.716   7.531 -1.3013  0.6301  0.0114
13181WAT    EPW53432   0.530   6.711   7.454  0.2709 -0.2857 -0.4188
13182WAT      O53433   6.985   3.515   0.271 -0.1414 -0.3689 -0.1374
13182WAT     H153434   6.916   3.544   0.226 -1.0869 -0.5778  1.1139
13182WAT     H253435   6.970   3.429   0.278  0.8119 -0.6002 -0.7705
13182WAT    EPW53436   6.973   3.507   0.265 -0.3022 -0.0912  0.1620
13183WAT      O53437   5.789   7.114   7.474  0.4941  0.0324 -0.0656
13183WAT     H153438   5.845   7.119   7.407  0.3578  1.0662 -0.1189
13183WAT     H253439   5.836   7.141   7.542 -0.1443  1.7251 -0.2575
13183WAT    EPW53440   5.804   7.119   7.474  0.6615  0.8137 -0.1363
13184WAT      O53441   3.438   2.844   7.121  0.2106 -0.0611  0.2021
13184WAT     H153442   3.368   2.809   7.083 -1.1021  0.0531  2.3439
13184WAT     H253443   3.494   2.778   7.126 -0.5028 -0.6763  0.1898
13184WAT    EPW53444   3.436   2.829   7.116 -0.0624  0.2061  0.0731
13185WAT      O53445   5.113   1.971   0.482 -0.2201  0.4478  0.2264
13185WAT     H153446   5.070   2.019   0.541 -1.1902  0.8185 -0.7549
13185WAT     H253447   5.129   2.027   0.417 -0.0370 -0.1953 -0.2966
13185WAT    EPW53448   5.109   1.987   0.481  0.4360  0.3905 -0.5709
13186WAT      O53449   1.285   0.534   5.449 -0.3593 -0.1763 -0.0925
13186WAT     H153450   1.351   0.483   5.422 -0.0358 -0.3015  0.9044
13186WAT     H253451   1.270   0.507   5.530 -0.9369  0.5729  0.0585
13186WAT    EPW53452   1.293   0.522   5.457 -0.7490  0.0239  0.7254
13187WAT      O53453   5.989   3.658   0.426 -0.4365 -0.0500 -0.4686
13187WAT     H153454   6.059   3.657   0.479 -0.8840 -1.3858  0.1500
13187WAT     H253455   5.976   3.742   0.411  1.7289  0.2277 -1.1695
13187WAT    EPW53456   5.997   3.670   0.431 -0.7345 -0.2274  0.4811
13188WAT      O53457   7.424   6.462   5.931 -0.1552 -0.4054 -0.2999
13188WAT     H153458   7.440   6.475   5.846 -0.7739  0.7583 -0.2680
13188WAT     H253459   7.372   6.529   5.952 -1.4969 -1.6584  0.5832
13188WAT    EPW53460   7.418   6.474   5.921 -0.3668 -0.2194  0.4430
13189WAT      O53461   1.076   2.569   3.847  0.0348 -0.2376  0.1541
13189WAT     H153462   1.042   2.618   3.784 -0.1919  0.5752  0.8983
13189WAT     H253463   1.146   2.533   3.809  0.2062  0.6548 -0.4107
13189WAT    EPW53464   1.081   2.571   3.832 -0.0120 -0.1178  0.3051
13190WAT      O53465   1.453   2.491   1.659 -0.2520  0.1920  0.5415
13190WAT     H153466   1.496   2.419   1.634 -0.2525  0.7384 -1.1305
13190WAT     H253467   1.484   2.507   1.739  2.0135  0.0699 -0.2630
13190WAT    EPW53468   1.464   2.483   1.667  0.4680  0.1905  0.2222
13191WAT      O53469   2.374   1.920   1.705  0.7460  0.0145 -0.3901
13191WAT     H153470   2.336   1.916   1.784 -1.3469  4.1215 -0.8711
13191WAT     H253471   2.452   1.884   1.718 -0.2953 -1.4373  2.9677
13191WAT    EPW53472   2.380   1.914   1.719  0.2991  0.0968 -0.4851
13192WAT      O53473   4.527   7.093   6.588 -0.2795  0.2253  0.6343
13192WAT     H153474   4.448   7.124   6.569 -0.7894 -0.7669  1.0343
13192WAT     H253475   4.515   7.007   6.594  0.9737 -0.0232  0.0618
13192WAT    EPW53476   4.514   7.085   6.586 -0.3174  0.3592  0.2428
13193WAT      O53477   3.019   0.588   1.017 -0.3390  0.1351 -0.1346
13193WAT     H153478   3.058   0.666   1.021 -0.2519  0.0657  0.4329
13193WAT     H253479   3.076   0.540   0.971 -0.3129  0.3555 -0.3393
13193WAT    EPW53480   3.033   0.593   1.011  0.8987  0.0753  0.0377
13194WAT      O53481   3.759   2.035   3.019  0.5559  0.4795 -0.0767
13194WAT     H153482   3.698   2.090   3.049 -1.2887 -0.4915 -1.9027
13194WAT     H253483   3.745   1.962   3.064 -0.3315 -0.0631 -1.1973
13194WAT    EPW53484   3.748   2.032   3.030  0.4157  0.6397 -0.4051
13195WAT      O53485   3.826   2.132   1.221  0.0966 -0.3313 -0.2030
13195WAT     H153486   3.791   2.058   1.250  0.4731 -0.1680  0.7032
13195WAT     H253487   3.903   2.107   1.188 -0.0306 -0.4219 -0.4334
13195WAT    EPW53488   3.833   2.118   1.221 -0.1033 -0.8539 -0.0363
13196WAT      O53489   2.784   6.526   2.445  0.3622 -0.5365 -0.0888
13196WAT     H153490   2.780   6.612   2.430  1.5570 -0.5375 -0.5846
13196WAT     H253491   2.868   6.507   2.430  0.4024 -1.5740  1.2552
13196WAT    EPW53492   2.796   6.536   2.441 -0.1215  0.3380  0.1913
13197WAT      O53493   1.696   1.008   3.059 -0.2786  0.2757 -0.1496
13197WAT     H153494   1.680   1.093   3.056  1.7430  0.6746 -2.6456
13197WAT     H253495   1.666   0.978   2.983  1.3031 -0.7090 -0.4507
13197WAT    EPW53496   1.689   1.016   3.047 -0.1618  0.6508 -0.0077
13198WAT      O53497   2.958   6.309   0.471  0.2893 -0.1942 -0.1231
13198WAT     H153498   2.985   6.381   0.430  0.6078 -0.2694 -0.0466
13198WAT     H253499   3.026   6.255   0.466  1.0305  0.4167  2.0488
13198WAT    EPW53500   2.972   6.311   0.464  0.0965  0.1522 -0.0894
13199WAT      O53501   3.334   4.998   0.864  0.3384 -0.5613 -0.2250
13199WAT     H153502   3.312   4.914   0.851 -1.0129 -0.0751 -1.3932
13199WAT     H253503   3.348   5.028   0.784  0.2458  0.4682  0.1303
13199WAT    EPW53504   3.333   4.990   0.850 -0.4263  0.3835 -0.3323
13200WAT      O53505   4.061   2.743   5.848 -0.0171 -0.7299  0.7903
13200WAT     H153506   4.034   2.788   5.779 -1.9849 -0.9320  1.3759
13200WAT     H253507   4.094   2.804   5.901  0.1690 -0.3947  0.2882
13200WAT    EPW53508   4.062   2.759   5.846 -0.5109  0.4005  0.0735
13201WAT      O53509   1.223   1.080   1.952  0.0601 -0.1980 -0.3002
13201WAT     H153510   1.281   1.044   1.898 -0.6001  0.1788 -1.2865
13201WAT     H253511   1.158   1.105   1.899 -1.3660 -1.2786  0.8211
13201WAT    EPW53512   1.222   1.078   1.936  0.3901  0.3807  0.5471
13202WAT      O53513   2.400   6.264   0.898 -0.2340 -0.7346  0.0334
13202WAT     H153514   2.375   6.307   0.826 -0.3011 -1.4042 -0.3559
13202WAT     H253515   2.487   6.270   0.897 -0.1509 -1.7872 -0.7917
13202WAT    EPW53516   2.409   6.271   0.887  0.0456 -0.1426  0.2829
13203WAT      O53517   3.121   0.838   0.978 -0.2870  0.7687  0.0150
13203WAT     H153518   3.150   0.887   0.912  0.4182  0.9769  0.4706
13203WAT     H253519   3.061   0.889   1.016 -0.3938  0.8144 -0.2155
13203WAT    EPW53520   3.116   0.853   0.974  0.6841  0.2627  0.1069
13204WAT      O53521   7.154   7.533   0.094  0.6655 -0.2470 -0.6275
13204WAT     H153522   7.138   7.518   0.009 -0.7904  0.0671 -0.4224
13204WAT     H253523   7.232   7.495   0.106  0.4553 -1.1476 -1.8724
13204WAT    EPW53524   7.163   7.525   0.083 -0.0379 -0.0022  0.3638
13205WAT      O53525   7.512   0.198   4.745 -0.4225  0.0521  0.0220
13205WAT     H153526   7.431   0.203   4.777 -0.1819  0.9426  0.5379
13205WAT     H253527   7.539   0.281   4.747  0.4902 -0.2344 -0.1825
13205WAT    EPW53528   7.504   0.211   4.750  0.6335  0.0138  0.5610
13206WAT      O53529   1.211   7.217   0.366  0.1477 -0.3679 -0.3152
13206WAT     H153530   1.253   7.244   0.438 -0.6394 -1.8686  0.7442
13206WAT     H253531   1.268   7.162   0.329 -0.7595 -2.3760  1.1028
13206WAT    EPW53532   1.226   7.213   0.371 -0.2154 -0.1582 -0.0942
13207WAT      O53533   7.324   3.838   4.764 -0.1680  0.4996  0.2458
13207WAT     H153534   7.317   3.769   4.710  1.5885  0.0739  0.4910
13207WAT     H253535   7.374   3.894   4.719  0.2570  0.6716  0.9148
13207WAT    EPW53536   7.330   3.836   4.749  0.1279  0.2059  0.0820
13208WAT      O53537   6.495   2.473   0.706  0.4076  0.1428 -0.0648
13208WAT     H153538   6.569   2.480   0.752 -0.0439 -0.1075  0.7170
13208WAT     H253539   6.500   2.541   0.651  1.2501  0.0862 -0.0785
13208WAT    EPW53540   6.507   2.484   0.705 -0.4722 -0.2171  0.2707
13209WAT      O53541   6.753   4.319   4.610  0.4897 -0.2463  0.1457
13209WAT     H153542   6.791   4.244   4.635  2.0232 -0.1720 -1.7569
13209WAT     H253543   6.777   4.328   4.527  1.3243  2.9222  0.5767
13209WAT    EPW53544   6.762   4.309   4.602  0.6614 -0.4192 -0.2006
13210WAT      O53545   5.236   1.086   7.432 -0.1017  0.3060 -0.0491
13210WAT     H153546   5.315   1.122   7.445  0.4599  0.6368 -3.4817
13210WAT     H253547   5.182   1.143   7.470  1.1772  1.3053  0.3732
13210WAT    EPW53548   5.240   1.100   7.439 -0.0874 -0.3959 -0.1572
13211WAT      O53549   4.380   7.441   1.473  0.1367 -0.0435  0.7677
13211WAT     H153550   4.313   7.468   1.424 -1.1987 -0.9632  2.0210
13211WAT     H253551   4.374   7.489   1.545  0.7134 -0.2677  0.9714
13211WAT    EPW53552   4.369   7.452   1.476  0.2813 -0.1012 -1.3111
13212WAT      O53553   4.714   7.179   2.476 -0.0230 -0.1625  0.0853
13212WAT     H153554   4.649   7.237   2.475 -1.7754 -1.9847  0.5028
13212WAT     H253555   4.766   7.205   2.411 -0.7396  1.8091  0.2417
13212WAT    EPW53556   4.712   7.191   2.466  0.0450  0.3856 -0.5214
13213WAT      O53557   5.707   7.420   4.768  1.0590 -0.4493 -0.2667
13213WAT     H153558   5.791   7.397   4.773  1.3949  0.7050 -0.1351
13213WAT     H253559   5.703   7.465   4.693  0.9079  0.7635  0.4465
13213WAT    EPW53560   5.719   7.424   4.757 -0.1073 -0.1924 -0.1633
13214WAT      O53561   1.334   1.157   0.938  0.4177  0.2997 -0.6224
13214WAT     H153562   1.335   1.123   0.857  0.8616 -2.1701  0.3538
13214WAT     H253563   1.279   1.105   0.981 -1.0879  2.5401  0.3437
13214WAT    EPW53564   1.326   1.144   0.932 -0.2008  0.1804 -0.3692
13215WAT      O53565   2.064   6.063   1.961  0.8564  0.5038  0.4180
13215WAT     H153566   2.050   6.001   2.020 -0.7941 -0.2980 -0.7412
13215WAT     H253567   2.149   6.054   1.941  1.1456  0.0418  1.7814
13215WAT    EPW53568   2.075   6.053   1.967 -0.0781  0.2586  0.6031
13216WAT      O53569   1.519   0.669   3.855  0.1256 -0.3053 -0.7506
13216WAT     H153570   1.518   0.756   3.857  1.6852 -0.2802 -0.0501
13216WAT     H253571   1.494   0.650   3.773  0.1843  0.8145 -1.0365
13216WAT    EPW53572   1.515   0.679   3.843 -0.0024 -0.2559  0.9080
13217WAT      O53573   1.683   1.903   1.706  0.7213  0.3897  0.4963
13217WAT     H153574   1.720   1.976   1.735 -1.2055  1.5930  0.1398
13217WAT     H253575   1.736   1.877   1.643  1.7713  1.1439  1.0426
13217WAT    EPW53576   1.696   1.910   1.701 -0.0890 -0.5138 -0.1943
13218WAT      O53577   2.221   6.404   3.859 -0.0300  0.2915 -0.1453
13218WAT     H153578   2.249   6.430   3.938 -2.2918  2.0034  0.2002
13218WAT     H253579   2.138   6.432   3.856 -0.7659 -1.7116 -2.2686
13218WAT    EPW53580   2.213   6.412   3.870  0.2563 -0.4825 -0.0661
13219WAT      O53581   0.962   7.190   3.255 -0.4585  0.4504 -0.7396
13219WAT     H153582   0.986   7.204   3.337 -0.3162 -2.1878 -0.2576
13219WAT     H253583   1.037   7.187   3.211 -0.3301 -0.8639 -0.4564
13219WAT    EPW53584   0.976   7.192   3.261  0.2335 -0.0727 -0.2746
13220WAT      O53585   5.037   5.609   0.094  0.4958  0.5975 -0.3001
13220WAT     H153586   5.004   5.678   0.135 -1.7616  0.6479 -1.9695
13220WAT     H253587   5.107   5.641   0.053  0.7886  1.3293  0.7264
13220WAT    EPW53588   5.042   5.624   0.094 -0.0970  0.6740 -0.0867
13221WAT      O53589   5.696   0.969   1.015  0.1575  0.2120  0.2370
13221WAT     H153590   5.649   0.905   0.980  0.8048 -0.0820 -0.1085
13221WAT     H253591   5.661   0.979   1.094  0.0847 -0.6022  0.3172
13221WAT    EPW53592   5.684   0.961   1.021 -0.2633 -0.3490  0.1753
13222WAT      O53593   4.171   4.718   3.059 -0.1141  0.5607 -0.1730
13222WAT     H153594   4.085   4.732   3.068 -0.9078 -2.8618 -0.7462
13222WAT     H253595   4.194   4.682   3.135  0.5171  0.3437 -0.4613
13222WAT    EPW53596   4.161   4.715   3.071  0.7196 -0.2738  0.0714
13223WAT      O53597   6.298   4.575   5.413 -0.1075  0.8126  0.9039
13223WAT     H153598   6.287   4.502   5.460  0.6428  1.6836  2.4547
13223WAT     H253599   6.218   4.590   5.382 -0.8903  0.8094  2.7945
13223WAT    EPW53600   6.284   4.566   5.415 -0.2369  0.4565 -0.0637
13224WAT      O53601   7.345   2.197   2.087  0.2783  0.3338  0.3296
13224WAT     H153602   7.366   2.119   2.121  0.3016  0.8146  1.4503
13224WAT     H253603   7.301   2.236   2.151  1.0119  1.5827  0.0976
13224WAT    EPW53604   7.342   2.191   2.102  0.3798 -0.1696  0.1986
13225WAT      O53605   2.633   5.104   4.694  0.0084  0.6223  0.1091
13225WAT     H153606   2.632   5.086   4.779  0.6963  0.6247  0.1268
13225WAT     H253607   2.710   5.072   4.667  0.8556  2.6180 -0.0576
13225WAT    EPW53608   2.644   5.097   4.702 -0.1352  0.5806  0.1028
13226WAT      O53609   3.592   5.094   1.631  0.1990 -0.0550  0.7298
13226WAT     H153610   3.671   5.070   1.660 -0.4687 -2.1307  1.0511
13226WAT     H253611   3.588   5.179   1.647  1.6110 -0.2885  2.6031
13226WAT    EPW53612   3.603   5.103   1.637 -0.4003 -0.2712 -0.1657
13227WAT      O53613   7.054   5.663   3.427  0.0780  0.1142 -0.1709
13227WAT     H153614   7.024   5.743   3.446  1.3378  0.4836  0.3392
13227WAT     H253615   7.051   5.661   3.339  0.4321  0.8821 -0.2061
13227WAT    EPW53616   7.049   5.675   3.417  0.5132  0.1798 -0.2228
13228WAT      O53617   4.687   3.390   3.864  0.3689  0.2115 -0.2812
13228WAT     H153618   4.617   3.353   3.828 -0.5907  1.1299  0.5836
13228WAT     H253619   4.682   3.473   3.836  0.6480  0.4806  0.4611
13228WAT    EPW53620   4.676   3.397   3.854 -0.0839 -0.2357 -0.0564
13229WAT      O53621   3.805   0.133   2.346  0.0926  0.0027  0.4257
13229WAT     H153622   3.882   0.145   2.307  0.5715  0.1008  1.3854
13229WAT     H253623   3.825   0.126   2.430 -0.6158 -3.2011  0.4350
13229WAT    EPW53624   3.819   0.134   2.353 -0.1974 -0.0760  0.1999
13230WAT      O53625   5.681   1.681   4.396  0.5220  0.1588 -0.2245
13230WAT     H153626   5.668   1.760   4.363  2.0125  0.7284  0.4533
13230WAT     H253627   5.710   1.697   4.477  1.0164 -1.0555 -0.1324
13230WAT    EPW53628   5.684   1.695   4.403 -0.7703  0.2379  0.1646
13231WAT      O53629   4.964   3.819   4.611 -0.1199  0.1388 -0.9774
13231WAT     H153630   5.022   3.824   4.546  0.3129 -0.8836 -0.6961
13231WAT     H253631   4.906   3.760   4.582  1.9340 -3.0430  0.8749
13231WAT    EPW53632   4.964   3.811   4.597  0.7541 -0.1941  0.2434
13232WAT      O53633   7.115   4.359   1.366 -0.4009 -0.7820  0.1952
13232WAT     H153634   7.098   4.324   1.288  1.8311 -1.5619 -0.0186
13232WAT     H253635   7.103   4.293   1.421 -0.0194 -0.8035  0.2575
13232WAT    EPW53636   7.111   4.344   1.362 -0.1244  0.4545 -0.0550
13233WAT      O53637   2.473   5.885   3.630  0.1058 -0.3348  0.2926
13233WAT     H153638   2.544   5.839   3.610  0.6000  1.5088 -2.7067
13233WAT     H253639   2.414   5.858   3.572  0.2367  2.2635 -1.1543
13233WAT    EPW53640   2.475   5.874   3.619  0.6671 -0.1504 -0.1879
13234WAT      O53641   5.476   4.817   0.400  0.2874  0.2467 -0.0369
13234WAT     H153642   5.493   4.864   0.472  1.4888 -0.3749  0.1143
13234WAT     H253643   5.528   4.854   0.340 -0.3360  0.4376 -0.4750
13234WAT    EPW53644   5.486   4.830   0.402 -0.1730 -0.1863 -0.0405
13235WAT      O53645   7.025   1.127   2.647  0.8055 -0.2568 -0.0459
13235WAT     H153646   7.004   1.200   2.690  2.1619  0.8964 -1.2216
13235WAT     H253647   6.981   1.134   2.572 -0.7283 -1.7399  0.6504
13235WAT    EPW53648   7.015   1.139   2.642  0.4955  0.0789 -0.0938
13236WAT      O53649   6.528   6.137   4.367 -0.1536 -0.7282  0.3594
13236WAT     H153650   6.479   6.193   4.321  1.1344 -1.3638 -1.9086
13236WAT     H253651   6.609   6.158   4.345  0.4588 -1.9566  1.3250
13236WAT    EPW53652   6.533   6.148   4.357  0.3824  0.2621  0.0786
13237WAT      O53653   2.749   4.143   1.575  0.1103 -0.3851  0.1214
13237WAT     H153654   2.792   4.157   1.501  0.8508 -0.4024  0.5351
13237WAT     H253655   2.705   4.217   1.588 -0.1159 -0.4267 -0.3921
13237WAT    EPW53656   2.749   4.156   1.566  0.2083  0.2977  0.3622
13238WAT      O53657   7.005   4.866   6.911 -0.1119 -0.3372 -0.1670
13238WAT     H153658   7.037   4.864   6.830  1.8710  5.1444  0.0314
13238WAT     H253659   6.958   4.940   6.913 -2.4413 -1.6487  3.0484
13238WAT    EPW53660   7.002   4.877   6.900 -0.5919  0.1506  0.0329
13239WAT      O53661   1.332   0.251   3.401 -0.0922 -0.3012  0.1175
13239WAT     H153662   1.337   0.164   3.395 -0.4005 -0.4415  1.4795
13239WAT     H253663   1.388   0.271   3.465 -0.7531  0.3839  0.5107
13239WAT    EPW53664   1.341   0.241   3.410 -0.5593  0.7289  0.6223
13240WAT      O53665   3.148   1.979   4.191  0.0264  0.5288  0.0357
13240WAT     H153666   3.076   2.026   4.204  0.7110  1.6301  0.0362
13240WAT     H253667   3.136   1.909   4.241 -0.5838  1.2031  0.8757
13240WAT    EPW53668   3.136   1.976   4.200  0.2361  0.0868 -0.1849
13241WAT      O53669   3.743   5.035   6.721 -0.1457  0.0471  0.3888
13241WAT     H153670   3.775   4.961   6.688  1.0041  0.7100 -0.0807
13241WAT     H253671   3.712   5.077   6.651 -1.1009 -0.1274  0.6983
13241WAT    EPW53672   3.743   5.030   6.706 -0.0078  0.7776 -0.1075
13242WAT      O53673   1.336   6.597   0.605  0.0618  0.1019  0.1118
13242WAT     H153674   1.400   6.597   0.664 -0.5062 -1.2624  0.7718
13242WAT     H253675   1.378   6.593   0.529  0.9213  4.0465  0.1403
13242WAT    EPW53676   1.351   6.597   0.603  0.1825  0.0800 -0.3931
13243WAT      O53677   6.360   6.534   1.505  0.3132 -0.1688  0.5091
13243WAT     H153678   6.433   6.521   1.550 -0.2835 -0.6799  1.3624
13243WAT     H253679   6.333   6.453   1.487  0.9342 -0.0061 -1.4897
13243WAT    EPW53680   6.367   6.520   1.509  0.0468  0.1692  0.2311
13244WAT      O53681   0.865   5.124   1.970 -0.0418  0.1878 -0.5622
13244WAT     H153682   0.904   5.048   1.953 -0.6466 -0.5466  1.2054
13244WAT     H253683   0.800   5.126   1.912 -0.7310 -1.2151  0.1134
13244WAT    EPW53684   0.861   5.113   1.959 -0.5822  0.1067 -0.0371
13245WAT      O53685   3.168   7.334   2.063  0.1068 -0.9216  0.6464
13245WAT     H153686   3.101   7.284   2.087 -1.5667  1.3785  1.1864
13245WAT     H253687   3.228   7.319   2.124 -0.7675 -1.4966  1.3902
13245WAT    EPW53688   3.167   7.325   2.075 -0.3729 -0.1000  0.2279
13246WAT      O53689   3.171   1.789   3.970  0.2699 -0.7211  0.0466
13246WAT     H153690   3.187   1.805   3.886  1.2620 -1.2432  0.1084
13246WAT     H253691   3.159   1.868   4.004 -1.9680 -0.5896 -0.8856
13246WAT    EPW53692   3.172   1.803   3.963 -0.1199  0.6689 -0.3462
13247WAT      O53693   1.214   3.962   4.692  0.2972  0.3676  0.1793
13247WAT     H153694   1.176   3.943   4.616  0.1375  2.8183 -0.4457
13247WAT     H253695   1.152   3.942   4.751 -0.0099 -0.4597 -0.4059
13247WAT    EPW53696   1.199   3.956   4.690 -0.2602 -0.0306 -0.1242
13248WAT      O53697   5.680   7.101   0.221 -0.2496  0.5119  0.3441
13248WAT     H153698   5.623   7.080   0.283  1.4631 -1.3756  1.4046
13248WAT     H253699   5.640   7.079   0.147 -1.4107  0.5189  0.9552
13248WAT    EPW53700   5.666   7.095   0.219 -0.0563 -0.0383  0.0712
13249WAT      O53701   1.703   3.320   2.107  0.5635  0.2162 -0.0443
13249WAT     H153702   1.780   3.299   2.073  0.6566 -0.2105  0.4227
13249WAT     H253703   1.646   3.276   2.058  0.7791 -1.5489  1.1908
13249WAT    EPW53704   1.706   3.310   2.095  0.4528  0.4171  0.5187
13250WAT      O53705   7.146   5.999   7.593 -0.4679  0.2545  0.2166
13250WAT     H153706   7.223   6.033   7.616 -0.0175 -0.5203 -0.0992
13250WAT     H253707   7.161   5.913   7.592 -1.0820  0.1402 -0.7404
13250WAT    EPW53708   7.159   5.991   7.596  0.4891 -0.4390 -0.2222
13251WAT      O53709   6.833   5.535   5.502  0.4029  0.0476 -0.0495
13251WAT     H153710   6.803   5.455   5.486 -0.2206 -0.2297  2.1031
13251WAT     H253711   6.897   5.522   5.560  1.5667  1.0049 -1.0538
13251WAT    EPW53712   6.838   5.521   5.509 -0.8638  0.4430 -0.1412
13252WAT      O53713   3.939   2.707   2.359 -0.3488 -0.1443  1.0158
13252WAT     H153714   3.916   2.623   2.361 -0.8564 -0.0775 -0.4266
13252WAT     H253715   3.865   2.748   2.338  0.0170  0.6124  1.1618
13252WAT    EPW53716   3.924   2.700   2.356  0.6900  0.4094  0.7350
13253WAT      O53717   6.637   6.356   2.099 -0.2013 -0.1297 -0.5719
13253WAT     H153718   6.602   6.436   2.089 -0.0536  0.1136  0.7275
13253WAT     H253719   6.717   6.364   2.065 -0.5135  0.0071 -1.2934
13253WAT    EPW53720   6.643   6.369   2.092  0.3835 -0.0140 -0.2274
13254WAT      O53721   0.540   4.272   2.502  0.0112  0.2944  0.2759
13254WAT     H153722   0.557   4.288   2.586 -1.6091  0.0910  0.6747
13254WAT     H253723   0.570   4.191   2.490 -2.1221 -0.7535  1.4422
13254WAT    EPW53724   0.547   4.262   2.513 -0.1550 -0.1966  0.0127
13255WAT      O53725   2.196   4.323   3.542 -0.0680 -0.1342  0.1355
13255WAT     H153726   2.199   4.366   3.618  3.0049 -0.3062  0.2347
13255WAT     H253727   2.268   4.350   3.501 -0.8964 -1.1521 -2.1169
13255WAT    EPW53728   2.207   4.334   3.547 -0.2424 -0.4575  0.8934
13256WAT      O53729   6.707   6.393   1.390  0.1618  0.0434 -0.6955
13256WAT     H153730   6.779   6.371   1.345 -1.5485 -0.0118 -3.6100
13256WAT     H253731   6.700   6.479   1.377 -0.7520 -0.0979 -1.1847
13256WAT    EPW53732   6.717   6.402   1.382 -1.0524 -0.0152 -0.2290
13257WAT      O53733   5.807   4.160   2.461  0.5560  0.4261 -0.1957
13257WAT     H153734   5.833   4.129   2.384 -2.2529  0.8460 -1.4517
13257WAT     H253735   5.763   4.233   2.439  0.2871  0.9445  1.8704
13257WAT    EPW53736   5.804   4.166   2.446  0.2466  0.2309  0.2366
13258WAT      O53737   7.285   4.530   4.605  0.0770 -0.4008 -0.0786
13258WAT     H153738   7.292   4.592   4.543 -2.1379 -0.4155 -0.4152
13258WAT     H253739   7.200   4.529   4.624  0.4397 -1.6423  1.7248
13258WAT    EPW53740   7.273   4.539   4.598 -0.1051  0.1429 -0.1995
13259WAT      O53741   6.450   0.658   4.596  0.7160  0.0264  0.2711
13259WAT     H153742   6.422   0.576   4.604 -0.7647  0.3937 -0.8058
13259WAT     H253743   6.501   0.669   4.666  1.2619 -1.9124  0.2366
13259WAT    EPW53744   6.453   0.647   4.608 -1.1673 -0.1572  0.2045
13260WAT      O53745   5.292   6.849   1.767  0.1575  0.8071  0.5228
13260WAT     H153746   5.368   6.806   1.769  0.2893  1.0159  0.0843
13260WAT     H253747   5.249   6.817   1.836  0.6088  0.6269  0.7255
13260WAT    EPW53748   5.297   6.838   1.777 -0.1551 -0.0367 -0.5934
13261WAT      O53749   2.955   3.039   4.887  0.1927 -0.3108  0.0012
13261WAT     H153750   2.901   2.969   4.888  0.5499 -0.5843  0.2968
13261WAT     H253751   3.032   3.004   4.867  0.6509 -0.2010  1.4471
13261WAT    EPW53752   2.958   3.023   4.884 -0.1698 -0.0984  0.9498
13262WAT      O53753   4.338   2.412   4.152 -0.5558 -0.4659  0.3791
13262WAT     H153754   4.347   2.455   4.076  0.6028  0.8668  1.2320
13262WAT     H253755   4.333   2.476   4.211 -0.7066 -1.4945  1.5084
13262WAT    EPW53756   4.339   2.428   4.149 -0.2905 -0.0239  0.0340
13263WAT      O53757   3.471   2.621   5.877  0.3288 -0.3408  0.4734
13263WAT     H153758   3.505   2.698   5.900 -1.1952  0.6907 -0.5457
13263WAT     H253759   3.409   2.608   5.937  1.3121 -1.3796  1.3184
13263WAT    EPW53760   3.467   2.631   5.889  0.1861  0.0012 -0.5669
13264WAT      O53761   3.359   0.720   1.034 -0.8483  0.1977  0.0011
13264WAT     H153762   3.379   0.689   0.955 -1.5713  1.2767 -0.6367
13264WAT     H253763   3.288   0.769   1.020 -1.5529 -0.3110  1.4848
13264WAT    EPW53764   3.351   0.723   1.020  0.4204 -0.4411  0.1334
13265WAT      O53765   3.233   0.669   4.366  0.0499 -0.0184  0.3860
13265WAT     H153766   3.316   0.652   4.344  0.2655  1.3457  0.0782
13265WAT     H253767   3.188   0.649   4.294  0.1696 -0.2160  0.3635
13265WAT    EPW53768   3.239   0.663   4.352 -0.1194  0.6072 -0.2868
13266WAT      O53769   6.043   5.335   1.441  0.2209  0.5113 -0.4736
13266WAT     H153770   6.112   5.298   1.403 -0.2298  0.3730 -1.1623
13266WAT     H253771   6.022   5.280   1.505 -0.2031 -0.2486 -1.2451
13266WAT    EPW53772   6.050   5.322   1.445  0.2864  0.1194 -0.5798
13267WAT      O53773  -0.017   0.446   4.737  0.4467 -0.1876  0.2234
13267WAT     H153774  -0.028   0.513   4.683 -0.3422  0.3579  1.0284
13267WAT     H253775   0.060   0.412   4.713 -0.1644 -0.3682 -1.6325
13267WAT    EPW53776  -0.007   0.451   4.726  0.1044  0.1346  0.2241
13268WAT      O53777   0.856   4.357   5.394  0.1675 -0.0042  0.3468
13268WAT     H153778   0.812   4.282   5.389 -0.1422  0.1647  0.5380
13268WAT     H253779   0.884   4.370   5.313 -0.5764  0.1566  0.1108
13268WAT    EPW53780   0.854   4.348   5.381  0.3005 -0.0089  0.0366
13269WAT      O53781   1.761   6.595   3.726 -0.5352 -0.0640 -0.5064
13269WAT     H153782   1.831   6.573   3.774 -0.2017  0.0151 -0.9435
13269WAT     H253783   1.745   6.523   3.680 -1.9643 -0.7770  0.9831
13269WAT    EPW53784   1.769   6.581   3.726  0.6528  0.0490  0.2509
13270WAT      O53785   2.897   5.227   1.584  0.1484 -0.5094  0.3776
13270WAT     H153786   2.816   5.256   1.565  0.6804  0.2308 -0.9063
13270WAT     H253787   2.912   5.257   1.664 -0.7998 -0.5341  0.5761
13270WAT    EPW53788   2.887   5.235   1.593  0.2949 -0.0433 -0.1328
13271WAT      O53789   4.693   3.955   6.470 -0.1634  0.6130  0.4893
13271WAT     H153790   4.731   3.920   6.399 -0.0244  0.1062  0.8113
13271WAT     H253791   4.653   4.026   6.438  1.1070  1.2095  0.1528
13271WAT    EPW53792   4.693   3.961   6.454 -0.6423 -0.3286  0.5520
13272WAT      O53793   5.364   2.853   3.310 -0.4771  0.2061  0.4257
13272WAT     H153794   5.341   2.898   3.239 -0.0974 -2.5686 -1.6321
13272WAT     H253795   5.439   2.891   3.335 -1.5069  2.3321  0.5079
13272WAT    EPW53796   5.372   2.866   3.303 -0.1835  0.6278  0.0467
13273WAT      O53797   1.757   7.191   3.009  0.2966 -0.1766  0.2606
13273WAT     H153798   1.830   7.231   3.035  0.0989 -1.0939  2.5627
13273WAT     H253799   1.715   7.251   2.962  2.2809  0.5236 -0.7053
13273WAT    EPW53800   1.761   7.206   3.006 -0.0061  0.8332  0.9332
13274WAT      O53801   6.576   3.114   1.964  0.5658  0.0074  0.4807
13274WAT     H153802   6.593   3.030   1.946 -0.0842 -0.0616  0.1284
13274WAT     H253803   6.648   3.142   2.005 -0.3630 -1.5677  3.4857
13274WAT    EPW53804   6.589   3.106   1.967  0.1675  0.0566  0.4281
13275WAT      O53805   0.499   2.240   3.697  0.8390 -0.3506 -0.3909
13275WAT     H153806   0.527   2.312   3.739 -0.4697 -0.0705  0.0557
13275WAT     H253807   0.494   2.180   3.760 -3.6603  0.7329  0.6806
13275WAT    EPW53808   0.502   2.242   3.713 -0.8876  0.4224 -0.1675
13276WAT      O53809   0.195   3.992   7.606 -0.3265 -0.2921  0.2397
13276WAT     H153810   0.237   3.940   7.549  0.4926 -0.5869  1.0996
13276WAT     H253811   0.143   4.040   7.554 -2.7212 -3.3430 -0.5075
13276WAT    EPW53812   0.193   3.991   7.590  0.0316  0.4616  0.1135
13277WAT      O53813   5.393   0.891   1.641  0.2770  0.3463 -1.0780
13277WAT     H153814   5.394   0.804   1.644 -0.3090  0.3057 -1.8389
13277WAT     H253815   5.440   0.915   1.710 -0.9485 -0.5551  0.0937
13277WAT    EPW53816   5.400   0.882   1.651 -0.0497  0.7711  0.0037
13278WAT      O53817   5.620   7.541   6.392  0.7252 -0.6783 -0.2269
13278WAT     H153818   5.626   7.459   6.362 -0.2942 -0.6798 -0.4415
13278WAT     H253819   5.605   7.588   6.321  0.1918 -0.4436  0.0357
13278WAT    EPW53820   5.619   7.536   6.377  0.1258 -0.5343  0.2008
13279WAT      O53821   2.685   1.841   2.750 -0.3235  0.2565 -0.3248
13279WAT     H153822   2.620   1.788   2.775  2.5463 -2.4920  2.1089
13279WAT     H253823   2.708   1.882   2.823  1.6254 -0.0407 -0.7133
13279WAT    EPW53824   2.679   1.839   2.764  0.7288 -0.4462 -0.1816
13280WAT      O53825   0.287   1.807  -0.011  0.3862  0.4582  0.4193
13280WAT     H153826   0.232   1.820   0.055  0.9319 -0.6621  1.1245
13280WAT     H253827   0.353   1.762   0.025  0.3410 -0.8683 -1.0158
13280WAT    EPW53828   0.289   1.802   0.004  0.3529 -0.1970 -0.6364
13281WAT      O53829   7.399   1.728   7.368  0.8048  0.7005  0.4038
13281WAT     H153830   7.321   1.734   7.328  0.4005  1.0610  1.2087
13281WAT     H253831   7.453   1.770   7.315  0.6909 -0.5599 -0.7459
13281WAT    EPW53832   7.395   1.735   7.355  0.2376  0.2020  0.7201
13282WAT      O53833   6.988   1.623   3.775  0.4336 -0.6515  0.6720
13282WAT     H153834   6.948   1.631   3.698 -2.1325 -3.5495  1.5168
13282WAT     H253835   7.058   1.574   3.757 -1.2000 -3.0332  0.3112
13282WAT    EPW53836   6.993   1.617   3.761 -0.1829  0.2482 -0.0648
13283WAT      O53837   0.353   5.561   0.060 -0.0284  0.1234  0.2149
13283WAT     H153838   0.269   5.554   0.036  0.3586 -1.9705 -0.6963
13283WAT     H253839   0.397   5.529  -0.008  1.4064 -0.7730  1.4908
13283WAT    EPW53840   0.347   5.555   0.046  0.8362  0.2438  0.3170
13284WAT      O53841   4.418   7.017   0.666  0.3908  0.1435  0.3143
13284WAT     H153842   4.382   7.021   0.586 -0.2118 -0.4187  0.5575
13284WAT     H253843   4.468   7.089   0.668 -0.9265  1.1054  0.0772
13284WAT    EPW53844   4.420   7.028   0.654  0.1586 -0.4165  0.1043
13285WAT      O53845   2.814   7.091   7.065 -0.3672 -0.1980 -0.1040
13285WAT     H153846   2.752   7.152   7.078  0.1930  0.3030  0.2532
13285WAT     H253847   2.770   7.016   7.068 -0.7246  0.0454  1.7756
13285WAT    EPW53848   2.798   7.089   7.067 -0.2438  0.0760  0.2555
13286WAT      O53849   2.021   0.945   2.958 -0.3016  0.8562  0.6658
13286WAT     H153850   1.947   0.928   3.002 -0.7662  1.7186  0.2471
13286WAT     H253851   2.078   0.888   2.991 -0.3120  2.1624  3.1936
13286WAT    EPW53852   2.018   0.934   2.970  0.4828  0.0014  0.1139
13287WAT      O53853   1.168   4.976   1.493  0.2498 -0.1168  0.0535
13287WAT     H153854   1.102   5.031   1.503 -1.3738 -2.0069  0.2885
13287WAT     H253855   1.176   4.970   1.406  2.5891  2.7877 -0.1004
13287WAT    EPW53856   1.160   4.983   1.481 -0.3112 -0.0123  0.2446
13288WAT      O53857   7.630   1.483   0.049  0.4513 -0.0295 -0.6226
13288WAT     H153858   7.599   1.557   0.084  2.0282 -0.3057  1.5963
13288WAT     H253859   7.559   1.442   0.020 -0.6239  1.6696 -0.5092
13288WAT    EPW53860   7.615   1.488   0.050 -0.7527  0.5720  0.4175
13289WAT      O53861   0.977   2.028   4.318  0.5324  0.1394  0.0367
13289WAT     H153862   0.908   2.011   4.266  1.7753 -0.3612 -1.5285
13289WAT     H253863   1.028   1.958   4.307  2.3010  1.4472 -0.6112
13289WAT    EPW53864   0.974   2.015   4.309  0.6839 -0.6962  0.0718
13290WAT      O53865   5.311   0.551   6.433 -0.1342  0.2591  0.5478
13290WAT     H153866   5.388   0.573   6.400  0.0759  1.3295  1.6809
13290WAT     H253867   5.275   0.627   6.455 -1.9462 -0.1248 -0.7946
13290WAT    EPW53868   5.317   0.565   6.431 -0.0725  0.2697 -0.2650
13291WAT      O53869   5.796   6.260   0.856 -0.0847 -0.0091  0.0246
13291WAT     H153870   5.812   6.179   0.886  0.2548 -0.0536 -0.2735
13291WAT     H253871   5.866   6.279   0.808 -0.0464  0.5667  0.3012
13291WAT    EPW53872   5.808   6.251   0.853 -0.2056  0.1384 -0.0134
13292WAT      O53873   0.946   4.795   1.902  0.6586  0.2501  0.1694
13292WAT     H153874   0.928   4.780   1.986  2.5174  1.3212  0.8026
13292WAT     H253875   1.032   4.783   1.896  0.7163  1.1239 -1.3766
13292WAT    EPW53876   0.956   4.791   1.913  0.3848 -0.1480 -0.1176
13293WAT      O53877   1.714   2.299   4.077 -0.1791  0.1975  0.2394
13293WAT     H153878   1.628   2.286   4.079 -0.0906 -0.3576  0.6616
13293WAT     H253879   1.739   2.290   4.160  0.4379 -0.8342 -0.0256
13293WAT    EPW53880   1.705   2.296   4.089 -0.2632  0.4202 -0.6484
13294WAT      O53881   4.501   3.892   3.805  0.1837  0.1244  0.2973
13294WAT     H153882   4.473   3.852   3.878  1.2311 -1.9647 -0.3650
13294WAT     H253883   4.584   3.866   3.798  0.3506  0.9433 -1.2141
13294WAT    EPW53884   4.509   3.883   3.815 -0.0499  0.0774 -0.5118
13295WAT      O53885   1.019   3.538   3.024 -0.0987  0.1610  0.0813
13295WAT     H153886   1.087   3.549   3.078 -0.2852 -2.2221  0.9321
13295WAT     H253887   1.053   3.554   2.945  1.1080  0.2600  0.5976
13295WAT    EPW53888   1.034   3.542   3.021  0.9856 -0.2744  0.0115
13296WAT      O53889   0.400   0.719   2.192 -0.5337 -0.0091  0.3521
13296WAT     H153890   0.426   0.730   2.274 -2.2869  0.2952  0.8971
13296WAT     H253891   0.470   0.743   2.145  0.7900 -0.9952  1.7206
13296WAT    EPW53892   0.414   0.724   2.197 -0.2857 -0.3251  0.0231
13297WAT      O53893   2.252   6.241   1.263 -0.0901 -0.1955 -0.2771
13297WAT     H153894   2.195   6.214   1.203 -1.3219 -0.6991  1.0658
13297WAT     H253895   2.202   6.271   1.328  1.1377 -0.8217  1.0375
13297WAT    EPW53896   2.237   6.241   1.264  0.5944  0.4220 -0.0175
13298WAT      O53897   6.884   5.397   6.852  0.6204  1.0417  0.2817
13298WAT     H153898   6.873   5.314   6.830 -1.0643  1.9174 -2.7362
13298WAT     H253899   6.853   5.401   6.933  0.4513 -1.1796  0.3799
13298WAT    EPW53900   6.878   5.386   6.861  0.2243 -0.5092 -0.0692
13299WAT      O53901   0.744   1.007   1.653 -0.0589  0.2241 -0.2760
13299WAT     H153902   0.761   0.925   1.627  1.2883  0.7967 -1.2965
13299WAT     H253903   0.749   1.002   1.740 -0.7381 -0.9183 -0.2792
13299WAT    EPW53904   0.747   0.994   1.662  0.0466  0.4089  0.1978
13300WAT      O53905  -0.012   3.407   4.016  0.6776 -0.3214 -0.7091
13300WAT     H153906   0.005   3.368   4.092  0.8515 -0.0907 -0.6279
13300WAT     H253907   0.053   3.379   3.965 -0.3419 -1.8113 -1.2747
13300WAT    EPW53908   0.000   3.397   4.020  0.1857 -0.1403 -0.2400
13301WAT      O53909   6.358   2.376   5.235  0.4977  0.1591  0.5676
13301WAT     H153910   6.306   2.374   5.165  0.8398 -2.5442  0.3023
13301WAT     H253911   6.437   2.362   5.202  1.1710  2.1276  1.2100
13301WAT    EPW53912   6.362   2.374   5.220 -0.5160  0.0307  0.0334
13302WAT      O53913   5.134   7.376   6.875 -0.2922  0.0671  0.1642
13302WAT     H153914   5.193   7.402   6.816  0.3885 -0.0417  0.7929
13302WAT     H253915   5.088   7.315   6.832 -0.9471  1.2011 -0.8310
13302WAT    EPW53916   5.136   7.371   6.860  0.0028  0.1186  0.0057
13303WAT      O53917   1.012   1.184   3.768 -0.2866 -0.0984  0.0435
13303WAT     H153918   0.931   1.165   3.791 -0.2285  2.1394  2.7216
13303WAT     H253919   1.061   1.139   3.825  0.1713  0.5981  0.2280
13303WAT    EPW53920   1.008   1.175   3.780 -0.0288 -0.0679  0.2364
13304WAT      O53921   3.860   5.209   0.150 -0.3998  0.5352 -0.0260
13304WAT     H153922   3.870   5.131   0.112 -0.7826  0.0400  0.8502
13304WAT     H253923   3.939   5.226   0.182 -0.3461  0.4348 -0.1037
13304WAT    EPW53924   3.873   5.200   0.149 -0.8766 -0.3881  0.0471
13305WAT      O53925   0.172   2.437   5.420  0.4824 -0.2885 -0.0631
13305WAT     H153926   0.167   2.351   5.413  0.0859 -0.4167  1.5396
13305WAT     H253927   0.107   2.466   5.368  0.2832 -0.9614 -0.1926
13305WAT    EPW53928   0.162   2.429   5.411 -0.7708 -0.2003  1.5251
13306WAT      O53929   2.744   5.103   1.980 -0.1247  0.1714 -0.5717
13306WAT     H153930   2.761   5.183   1.950  0.3189  0.5648  0.6639
13306WAT     H253931   2.726   5.117   2.064  1.8473 -1.2424  0.1414
13306WAT    EPW53932   2.744   5.117   1.988 -0.5899  0.1256 -0.0399
13307WAT      O53933   0.137   1.205   0.076 -0.3813  0.1997 -0.1104
13307WAT     H153934   0.092   1.279   0.065  1.3473  1.5324  1.1654
13307WAT     H253935   0.143   1.198   0.163  0.1515 -1.0304 -0.2272
13307WAT    EPW53936   0.131   1.215   0.087  0.2532 -0.5094  0.1896
13308WAT      O53937   1.587   6.042   3.247 -0.1082 -0.1253  0.0129
13308WAT     H153938   1.574   6.099   3.182  0.1196  0.9324  0.8633
13308WAT     H253939   1.506   6.014   3.266 -0.1983 -0.2643 -0.5560
13308WAT    EPW53940   1.573   6.046   3.241  0.4539  0.0580 -0.6547
13309WAT      O53941   7.012   1.963   3.173 -0.0025 -0.2510 -0.1793
13309WAT     H153942   7.035   1.981   3.255  2.0927  0.9086 -0.9566
13309WAT     H253943   7.083   1.927   3.138 -1.3941 -2.3178 -1.0888
13309WAT    EPW53944   7.026   1.961   3.180 -0.0180  0.3813  0.2069
13310WAT      O53945   1.923   3.398   7.030 -0.2523 -0.4898  0.9024
13310WAT     H153946   1.916   3.460   7.091 -0.5611 -0.5474  0.9286
13310WAT     H253947   2.007   3.377   7.031 -0.2736 -0.5586  1.3790
13310WAT    EPW53948   1.934   3.404   7.039 -0.8406 -0.1066  0.2680
13311WAT      O53949   1.707   5.539   5.736 -0.5979 -0.5322  0.0438
13311WAT     H153950   1.725   5.567   5.656  0.2771  0.8518  0.6841
13311WAT     H253951   1.779   5.495   5.759 -0.6811 -0.5788  0.2182
13311WAT    EPW53952   1.720   5.536   5.728 -0.3497  0.1427 -0.2177
13312WAT      O53953   6.055   6.646   5.867 -0.1568 -0.8758 -0.0346
13312WAT     H153954   5.969   6.659   5.856 -0.8602 -4.7243 -0.6714
13312WAT     H253955   6.061   6.622   5.951  0.8159  1.8966  0.7671
13312WAT    EPW53956   6.043   6.644   5.878 -0.2834 -0.4670 -0.3743
13313WAT      O53957   0.828   4.905   5.390 -0.0505  0.0442  0.8274
13313WAT     H153958   0.872   4.957   5.445  0.5693  0.5542 -0.1382
13313WAT     H253959   0.745   4.910   5.419  0.0474  1.3292  0.9407
13313WAT    EPW53960   0.822   4.914   5.403  0.3606  1.4784 -0.1071
13314WAT      O53961   5.433   5.280   6.768 -0.4306  0.0136  0.0380
13314WAT     H153962   5.482   5.292   6.839 -0.1460 -1.0195  0.0397
13314WAT     H253963   5.411   5.361   6.744  2.3289  0.6584 -0.7138
13314WAT    EPW53964   5.437   5.294   6.775  0.0285  0.4669  0.3267
13315WAT      O53965   5.689   3.299   7.005 -0.7893  0.2462 -0.1792
13315WAT     H153966   5.692   3.233   7.063  1.1914  0.7310  0.3258
13315WAT     H253967   5.696   3.259   6.928  0.3528 -0.1704  0.1222
13315WAT    EPW53968   5.690   3.283   7.003  0.0841 -0.4794  0.0906
13316WAT      O53969   5.189   1.627   1.730  0.2534  0.1875 -0.8157
13316WAT     H153970   5.156   1.674   1.665  0.4049  1.4401 -0.0041
13316WAT     H253971   5.118   1.597   1.772  0.1638  0.2427 -0.9266
13316WAT    EPW53972   5.174   1.629   1.727  0.6275 -0.0881 -0.3361
13317WAT      O53973   4.012   6.024   3.671  0.4082  0.4063 -0.1298
13317WAT     H153974   4.007   5.939   3.652  1.4485  0.2847  0.0614
13317WAT     H253975   3.992   6.027   3.756  2.7878 -0.0259  0.5435
13317WAT    EPW53976   4.009   6.012   3.681 -0.0978  0.3125 -0.5976
13318WAT      O53977   6.830   1.583   0.983 -0.3119 -0.0926  0.1816
13318WAT     H153978   6.795   1.518   1.030 -0.7833  0.2607  0.3367
13318WAT     H253979   6.867   1.634   1.043  0.0354 -0.2068  0.0632
13318WAT    EPW53980   6.830   1.581   0.999 -0.0908  0.6236  0.8045
13319WAT      O53981   6.624   2.798   2.144  0.0978  0.1989  0.2947
13319WAT     H153982   6.621   2.724   2.191  0.0682 -0.0874 -0.1457
13319WAT     H253983   6.546   2.835   2.159 -0.0254 -0.0366  0.2454
13319WAT    EPW53984   6.612   2.792   2.153  0.2992 -0.8444  0.9237
13320WAT      O53985   1.100   2.754   4.932  0.3101  0.2680 -0.1178
13320WAT     H153986   1.018   2.768   4.903 -0.0018 -1.8284 -0.4247
13320WAT     H253987   1.088   2.717   5.009  1.1085  2.8330  1.3562
13320WAT    EPW53988   1.086   2.751   4.939 -0.3409 -0.4440  0.3354
13321WAT      O53989   2.071   0.293   2.356 -0.0357  0.2071  0.3691
13321WAT     H153990   2.048   0.375   2.374 -2.9051 -0.6065  0.9972
13321WAT     H253991   2.075   0.255   2.435  0.4195 -0.4633  0.0335
13321WAT    EPW53992   2.068   0.300   2.371  0.4330  0.1527 -0.0499
13322WAT      O53993   0.740   0.944   1.179 -0.5308  0.1453 -0.0096
13322WAT     H153994   0.654   0.938   1.171 -0.8630  4.0682 -1.8133
13322WAT     H253995   0.769   0.916   1.101 -0.5515  1.9824 -0.7281
13322WAT    EPW53996   0.732   0.939   1.166 -0.1566  0.6896  0.1035
13323WAT      O53997   3.499   7.550   1.577  0.2954  0.2075 -0.1978
13323WAT     H153998   3.456   7.489   1.531  0.0604  0.1539  0.0859
13323WAT     H253999   3.554   7.584   1.520 -1.9239  2.1463 -1.3722
13323WAT    EPW54000   3.501   7.546   1.562 -0.7585 -0.4290  0.3126
13324WAT      O54001   0.191   3.769   5.180  0.6687 -0.5604  0.2210
13324WAT     H154002   0.164   3.728   5.252 -2.6260  0.1148 -0.4866
13324WAT     H254003   0.133   3.833   5.169  0.6523 -1.0017 -3.3604
13324WAT    EPW54004   0.179   3.773   5.189  0.1776  0.4969 -0.2919
13325WAT      O54005   7.360   2.858   6.059  0.2282 -0.3825  0.1791
13325WAT     H154006   7.362   2.822   5.979  0.3863  0.3458 -0.1450
13325WAT     H254007   7.277   2.884   6.067  0.2545 -0.3035  0.1881
13325WAT    EPW54008   7.348   2.856   6.048 -0.0605 -0.2733 -0.4404
13326WAT      O54009   3.443   6.735   4.159 -0.5208  0.6835  0.4283
13326WAT     H154010   3.506   6.678   4.141 -0.6637  0.9505 -1.1050
13326WAT     H254011   3.398   6.697   4.223  1.4560  0.7315  1.9411
13326WAT    EPW54012   3.445   6.721   4.166 -0.4006  0.1057 -0.1000
13327WAT      O54013   1.438   4.618   1.399  0.1335  0.3679 -0.4494
13327WAT     H154014   1.369   4.647   1.354  1.0407  0.8140 -1.6256
13327WAT     H254015   1.409   4.611   1.480 -0.9142  1.9077 -0.6577
13327WAT    EPW54016   1.424   4.621   1.404  0.2752 -0.1186  0.2641
13328WAT      O54017   6.641   0.649   4.796  0.0389 -0.6112  0.3210
13328WAT     H154018   6.696   0.587   4.769 -0.6222 -1.1840  0.2674
13328WAT     H254019   6.692   0.720   4.804  0.6341 -0.9398 -0.4489
13328WAT    EPW54020   6.657   0.651   4.793 -0.5329  0.0588  0.3769
13329WAT      O54021   6.492   3.231   4.183  0.2206 -0.5310  0.1064
13329WAT     H154022   6.551   3.178   4.220 -2.1637 -2.4007  1.6003
13329WAT     H254023   6.481   3.198   4.103 -0.9522 -2.2013  0.8894
13329WAT    EPW54024   6.499   3.219   4.177 -0.4756 -0.1416 -0.1518
13330WAT      O54025   2.897   1.150   5.507  0.0874 -0.4214 -0.2076
13330WAT     H154026   2.962   1.098   5.480 -0.4334 -0.4506 -1.4891
13330WAT     H254027   2.939   1.221   5.538  0.7545 -0.9015  0.0112
13330WAT    EPW54028   2.913   1.153   5.508 -0.0151  0.3413 -0.4861
13331WAT      O54029   5.789   1.461   5.764  0.1017  0.2360 -0.3852
13331WAT     H154030   5.719   1.508   5.741  0.2344  1.2306  1.1275
13331WAT     H254031   5.837   1.459   5.691 -1.0622  0.3255 -1.1790
13331WAT    EPW54032   5.786   1.468   5.750 -0.1303  0.1437  0.4800
13332WAT      O54033   1.461   4.017   5.420  0.4148 -0.4689 -0.1489
13332WAT     H154034   1.486   3.986   5.343 -0.1496 -0.6855 -0.2495
13332WAT     H254035   1.536   4.023   5.465  0.7469 -0.3384 -0.7092
13332WAT    EPW54036   1.476   4.013   5.415 -0.3331 -0.2034  0.1664
13333WAT      O54037   3.951   3.672   5.455  0.5483  0.1849 -0.0547
13333WAT     H154038   3.933   3.665   5.370  0.5427 -2.7500  0.1120
13333WAT     H254039   3.907   3.743   5.479 -1.7403 -0.4783 -1.9389
13333WAT    EPW54040   3.942   3.682   5.446  0.1553  0.9480  0.0961
13334WAT      O54041   7.057   5.762   6.985 -0.2485 -0.1185  0.2513
13334WAT     H154042   6.980   5.759   7.026  1.0205  0.9365  3.0088
13334WAT     H254043   7.071   5.680   6.962 -1.0675 -0.8311  2.0700
13334WAT    EPW54044   7.048   5.750   6.988 -0.2360 -0.5894  0.0012
13335WAT      O54045   2.129   0.517   1.838  0.1968  0.5330  0.2575
13335WAT     H154046   2.080   0.512   1.909 -0.1145  0.8230  0.0677
13335WAT     H254047   2.202   0.555   1.866  2.4024 -3.9991  1.6262
13335WAT    EPW54048   2.132   0.522   1.852  0.3634  0.0574 -0.6023
13336WAT      O54049   0.363   1.042   2.949 -0.0984 -0.0484 -0.3898
13336WAT     H154050   0.292   1.090   2.931 -0.2204  0.0190  0.2364
13336WAT     H254051   0.420   1.101   2.978  0.2310 -0.0996 -0.9123
13336WAT    EPW54052   0.361   1.058   2.951 -0.2321 -0.2526 -0.2117
13337WAT      O54053   1.069   1.462   1.203 -0.1266  0.2223 -0.2656
13337WAT     H154054   1.138   1.464   1.256  1.8550  1.4149 -2.7140
13337WAT     H254055   1.083   1.391   1.154 -1.3158 -0.1945 -0.0416
13337WAT    EPW54056   1.081   1.451   1.204 -0.6058 -0.0400 -0.1191
13338WAT      O54057   6.113   7.247   2.582  0.2860 -0.6975 -0.2873
13338WAT     H154058   6.035   7.272   2.555 -0.2105 -0.0190  1.5920
13338WAT     H254059   6.169   7.289   2.530 -0.5995  0.2485 -0.4918
13338WAT    EPW54060   6.110   7.257   2.571  0.1926 -0.4564  0.1731
13339WAT      O54061   6.728   3.825   1.781 -0.3905 -0.8174  0.3530
13339WAT     H154062   6.696   3.853   1.704 -2.9732 -0.5906  1.3838
13339WAT     H254063   6.675   3.759   1.801  1.2129 -1.8645  1.2468
13339WAT    EPW54064   6.715   3.820   1.772  0.3459 -0.1615  0.6127
13340WAT      O54065   6.434   3.489   7.018  0.1219 -0.1173 -0.0435
13340WAT     H154066   6.496   3.544   6.993 -0.4922 -0.7550 -3.4340
13340WAT     H254067   6.458   3.413   6.983 -0.8635 -1.1942  1.4745
13340WAT    EPW54068   6.447   3.486   7.009 -0.5833  0.0785  0.1317
13341WAT      O54069   1.039   3.340   0.901 -0.3134 -0.2012 -0.4625
13341WAT     H154070   0.952   3.329   0.897 -0.9173  2.9632  1.0381
13341WAT     H254071   1.059   3.372   0.823 -0.5346 -0.5150 -0.6546
13341WAT    EPW54072   1.029   3.343   0.889  0.5823  0.3238  0.3464
13342WAT      O54073   6.491   0.907   3.408  0.3368  0.3844 -0.1773
13342WAT     H154074   6.429   0.872   3.457  0.2545  0.6522 -0.0906
13342WAT     H254075   6.563   0.866   3.434 -0.0349 -1.2424 -1.5150
13342WAT    EPW54076   6.493   0.896   3.419  0.4464 -0.1475 -0.4358
13343WAT      O54077   5.082   1.731   1.473  0.2120  0.7244  0.1850
13343WAT     H154078   5.006   1.696   1.449  0.6984  0.4619 -1.0980
13343WAT     H254079   5.076   1.814   1.446 -0.3288  1.2452  1.8004
13343WAT    EPW54080   5.070   1.738   1.465  0.3566 -0.3620  0.5390
13344WAT      O54081   7.081   6.121   5.239  0.1397 -0.1802 -0.0432
13344WAT     H154082   7.149   6.169   5.212 -0.1541 -0.8940 -2.2647
13344WAT     H254083   7.019   6.180   5.254  0.5062  0.3006 -0.3843
13344WAT    EPW54084   7.082   6.136   5.237 -0.1048  0.4160 -0.1474
13345WAT      O54085   2.097   6.752   1.720  0.0122  0.1578  0.0582
13345WAT     H154086   2.090   6.760   1.633 -0.9360 -1.1322 -0.0009
13345WAT     H254087   2.088   6.834   1.748 -0.7015  0.4618 -0.9984
13345WAT    EPW54088   2.095   6.766   1.711  0.3919  0.4478  0.3411
13346WAT      O54089   3.679   4.874   7.340 -0.3976  0.6447  0.0452
13346WAT     H154090   3.676   4.801   7.291  0.3221  0.1953  0.6465
13346WAT     H254091   3.667   4.844   7.421  2.3196  0.8348  0.5991
13346WAT    EPW54092   3.677   4.859   7.345 -0.2193  0.3784  0.4736
13347WAT      O54093   0.906   2.305   5.434 -0.2035  0.2782  0.1843
13347WAT     H154094   0.873   2.292   5.354 -0.4583  3.0176 -0.2339
13347WAT     H254095   0.836   2.300   5.485 -0.2710  0.0062  0.0708
13347WAT    EPW54096   0.891   2.302   5.430 -0.1035 -0.1477  0.0772
13348WAT      O54097   7.614   6.930   1.558 -0.3948  0.0774  0.5366
13348WAT     H154098   7.580   6.944   1.479  2.6901  0.2782 -0.9044
13348WAT     H254099   7.645   6.848   1.554  0.6265  0.4021  1.1458
13348WAT    EPW54100   7.614   6.920   1.546  0.3374  0.1488  0.0071
13349WAT      O54101   1.207   3.901   3.438  0.3477 -0.5495 -0.1068
13349WAT     H154102   1.214   3.988   3.437  0.1005 -0.4525  2.1712
13349WAT     H254103   1.121   3.888   3.432  0.2724 -0.5569  0.8286
13349WAT    EPW54104   1.195   3.912   3.437  0.4603  0.6680 -0.1839
13350WAT      O54105   7.340   4.134   6.716 -0.1294  0.5934  0.1345
13350WAT     H154106   7.391   4.077   6.757  0.2444 -0.0839 -1.2071
13350WAT     H254107   7.259   4.105   6.733  0.0079  0.4224  0.5125
13350WAT    EPW54108   7.335   4.122   6.725 -0.7399  0.1923  0.2171
13351WAT      O54109   0.934   5.537   1.366 -0.5422  0.3049  0.0705
13351WAT     H154110   0.862   5.527   1.317 -1.1087  1.1581  0.7043
13351WAT     H254111   0.992   5.570   1.310 -0.3414 -1.1695 -0.6667
13351WAT    EPW54112   0.932   5.540   1.350  0.4914  0.4028  0.4462
13352WAT      O54113   6.019   6.279   6.916 -0.0927 -0.1314 -0.0790
13352WAT     H154114   6.023   6.359   6.880  3.7222 -0.5134 -0.9884
13352WAT     H254115   6.070   6.231   6.864  0.0468 -2.4572  2.0200
13352WAT    EPW54116   6.027   6.284   6.903  0.3517 -0.7471 -0.0040
13353WAT      O54117   6.691   2.459   4.087 -0.0109 -0.0451 -0.3700
13353WAT     H154118   6.714   2.539   4.115  0.3929  0.1710 -1.2892
13353WAT     H254119   6.611   2.449   4.119 -0.3868  1.0688 -0.9044
13353WAT    EPW54120   6.683   2.470   4.096 -0.1405 -0.5904  0.1504
13354WAT      O54121   0.182   4.076   4.661 -0.8115 -0.0502 -0.2681
13354WAT     H154122   0.177   4.140   4.720  0.2050  0.6754 -0.9264
13354WAT     H254123   0.241   4.021   4.695 -0.8846 -0.0834 -0.1965
13354WAT    EPW54124   0.190   4.078   4.674  0.6842 -0.1767  0.0293
13355WAT      O54125   4.348   2.882   5.433 -0.0854 -0.3925 -0.7522
13355WAT     H154126   4.351   2.956   5.386  1.5632 -0.9877 -1.6361
13355WAT     H254127   4.408   2.831   5.395 -0.4267 -1.7936  0.5249
13355WAT    EPW54128   4.357   2.886   5.420  0.0188 -0.1953  0.1395
13356WAT      O54129   2.164   6.336   7.046 -1.0335 -0.0701 -0.3285
13356WAT     H154130   2.182   6.405   6.996  1.7221 -0.7499 -0.4548
13356WAT     H254131   2.108   6.367   7.105 -0.7996  1.9379 -1.0866
13356WAT    EPW54132   2.159   6.350   7.047  0.0373  0.6747  0.7169
13357WAT      O54133   5.917   7.180   0.100 -0.1573 -0.4111  0.2905
13357WAT     H154134   5.868   7.134   0.156 -0.7316 -0.1571  0.0094
13357WAT     H254135   5.907   7.262   0.127 -0.7483 -0.2448 -0.4095
13357WAT    EPW54136   5.908   7.185   0.113 -0.5847  1.1713 -0.6366
13358WAT      O54137   1.128   4.140   3.079 -0.1594 -0.2109 -0.0883
13358WAT     H154138   1.186   4.190   3.120  1.2890 -0.6534 -1.5210
13358WAT     H254139   1.166   4.062   3.076 -1.7066 -1.0522  0.6866
13358WAT    EPW54140   1.142   4.136   3.084 -0.2768  0.6137  0.2428
13359WAT      O54141   3.652   4.161   6.056  0.1364  0.2321 -0.2313
13359WAT     H154142   3.600   4.191   6.120 -0.1523 -1.9156  0.6510
13359WAT     H254143   3.731   4.158   6.092  0.0250 -0.7147 -0.0298
13359WAT    EPW54144   3.656   4.165   6.071 -0.5660 -0.1528  1.1329
13360WAT      O54145   5.386   0.846   3.136  0.4762 -0.4070  0.7064
13360WAT     H154146   5.309   0.810   3.155  0.2818 -0.2801  0.1809
13360WAT     H254147   5.389   0.917   3.186 -0.5267  0.5363 -0.5217
13360WAT    EPW54148   5.375   0.851   3.146 -0.0421 -0.2190 -0.0647
13361WAT      O54149   2.634   2.713   0.771  0.9913  0.6415 -0.0265
13361WAT     H154150   2.716   2.735   0.793  0.1821  0.1618  4.2999
13361WAT     H254151   2.590   2.788   0.779  0.6670  0.4746 -0.2572
13361WAT    EPW54152   2.640   2.727   0.775 -0.2620  0.1815  0.2735
13362WAT      O54153   1.698   1.977   4.167  0.7409  0.0997 -0.3147
13362WAT     H154154   1.785   1.989   4.168  0.8530 -0.1795 -2.2078
13362WAT     H254155   1.689   1.893   4.186  1.0165 -0.2221 -1.5248
13362WAT    EPW54156   1.710   1.966   4.170 -0.6560  0.4652  0.9219
13363WAT      O54157   3.192   6.070   3.528  0.0939  0.8335  0.4262
13363WAT     H154158   3.114   6.046   3.559  0.4160 -0.6604  0.1394
13363WAT     H254159   3.203   6.021   3.457  0.3830  2.5743 -0.8064
13363WAT    EPW54160   3.182   6.059   3.522  0.2018 -0.7208  0.7922
13364WAT      O54161   3.120   1.272   2.047  0.0084 -0.0381  0.1097
13364WAT     H154162   3.146   1.232   2.120  0.7711  1.2784  0.5790
13364WAT     H254163   3.044   1.309   2.070  0.4991  0.8097  0.4133
13364WAT    EPW54164   3.113   1.272   2.061  0.5282  0.5570 -0.2772
13365WAT      O54165   5.459   6.153   6.970 -0.4587 -0.8129  0.2343
13365WAT     H154166   5.398   6.111   6.924 -1.3641 -1.5471  2.0115
13365WAT     H254167   5.456   6.234   6.938 -0.8390 -1.3440 -1.1710
13365WAT    EPW54168   5.449   6.159   6.958  0.1822  0.0458 -0.6899
13366WAT      O54169   1.299   5.005   2.062 -0.4537 -0.6488  0.2263
13366WAT     H154170   1.292   5.045   1.984 -0.8146 -0.2189  0.4773
13366WAT     H254171   1.385   5.000   2.075 -0.4040  0.2073  0.2710
13366WAT    EPW54172   1.310   5.010   2.052 -0.1955  0.4347  0.4060
13367WAT      O54173   7.371   2.385   5.412  0.6448 -0.0468  0.9183
13367WAT     H154174   7.350   2.321   5.466 -0.9725  0.0431  0.4429
13367WAT     H254175   7.409   2.344   5.345  0.8210 -0.3675  1.2166
13367WAT    EPW54176   7.373   2.370   5.410  0.0881  0.8563 -0.0016
13368WAT      O54177   2.404   6.519   5.009 -0.5423  0.2073  0.2537
13368WAT     H154178   2.373   6.454   5.058  0.0272  0.3934  0.8744
13368WAT     H254179   2.409   6.484   4.929  0.8199 -0.8894  0.7875
13368WAT    EPW54180   2.400   6.504   5.004 -0.1950 -0.1742 -0.1573
13369WAT      O54181   6.960   4.122   0.409  0.1857 -0.1246 -0.0611
13369WAT     H154182   6.887   4.107   0.454  0.1437  0.1579 -0.0348
13369WAT     H254183   6.935   4.177   0.346  0.1312 -0.9064 -0.7552
13369WAT    EPW54184   6.946   4.128   0.406 -0.0520  0.9559 -0.4216
13370WAT      O54185   5.215   1.686   4.239 -0.0362  0.1676 -0.7242
13370WAT     H154186   5.182   1.763   4.214 -0.6719  0.6136  1.3176
13370WAT     H254187   5.178   1.672   4.317  2.5872 -0.6330  0.4721
13370WAT    EPW54188   5.204   1.695   4.247  0.0737 -0.2136 -0.8061
13371WAT      O54189   1.278   1.156   1.417  0.0182  0.2486 -0.1161
13371WAT     H154190   1.276   1.131   1.334  2.2710  0.6769 -0.3763
13371WAT     H254191   1.267   1.243   1.413  0.0329  0.2589  0.0338
13371WAT    EPW54192   1.276   1.165   1.404 -0.2473 -0.4660 -0.0296
13372WAT      O54193   3.055   0.892   2.220 -0.7866  0.6849  0.1238
13372WAT     H154194   3.076   0.976   2.220 -1.4451  0.8562  0.2917
13372WAT     H254195   2.970   0.892   2.199 -0.8844  0.0925  0.4913
13372WAT    EPW54196   3.046   0.904   2.217 -0.7390 -0.3935 -0.8305
13373WAT      O54197   5.083   1.127   1.936 -0.3370 -0.6963 -0.6438
13373WAT     H154198   5.117   1.104   1.859  1.8189  1.1465 -0.3218
13373WAT     H254199   5.115   1.067   1.990  0.7383 -0.2038 -0.7037
13373WAT    EPW54200   5.093   1.114   1.932 -0.4912  0.0913 -0.1376
13374WAT      O54201   7.026   4.049   1.817 -0.1254 -0.0416  0.2175
13374WAT     H154202   7.113   4.055   1.809 -0.2884  1.4802 -0.5684
13374WAT     H254203   7.007   3.975   1.774  1.1400 -2.7409  3.7471
13374WAT    EPW54204   7.036   4.039   1.810 -0.0069 -0.1494  0.0507
13375WAT      O54205   0.520   4.158   6.148  0.2527  0.4330 -0.1513
13375WAT     H154206   0.552   4.198   6.078 -0.9811  0.6897 -0.5910
13375WAT     H254207   0.435   4.177   6.146  0.2744  1.0028  1.7833
13375WAT    EPW54208   0.512   4.166   6.138 -0.1628 -0.1464 -0.2849
13376WAT      O54209   4.004   7.491   5.107 -0.0277  0.3051  0.2205
13376WAT     H154210   4.024   7.484   5.022 -0.9590 -2.2000  0.1416
13376WAT     H254211   4.070   7.538   5.140  0.3709  1.3224 -1.8550
13376WAT    EPW54212   4.017   7.497   5.099  0.3272  0.2061  0.3737
13377WAT      O54213   5.091   4.172   2.178  0.1710 -0.0885  0.1676
13377WAT     H154214   5.019   4.149   2.134 -0.9742  0.2678  1.7506
13377WAT     H254215   5.063   4.238   2.229  1.4132 -0.4395  1.3688
13377WAT    EPW54216   5.076   4.179   2.179 -0.3752 -0.0530 -0.7946
13378WAT      O54217   2.037   6.911   3.462 -0.0724  0.5102 -0.3943
13378WAT     H154218   1.951   6.926   3.463 -0.4298 -1.1849 -1.4181
13378WAT     H254219   2.046   6.850   3.401  1.9414  1.0048 -0.6495
13378WAT    EPW54220   2.026   6.904   3.453  0.1881  0.1838 -0.5825
13379WAT      O54221   4.551   2.308   7.057 -0.1650  0.3481  0.1485
13379WAT     H154222   4.544   2.383   7.014 -0.7559  0.2094 -0.0017
13379WAT     H254223   4.496   2.255   7.016  1.7786 -0.8235 -1.1435
13379WAT    EPW54224   4.542   2.311   7.045 -0.0723  0.1638 -0.2005
13380WAT      O54225   1.399   5.079   1.259 -0.1416 -0.2632  0.5208
13380WAT     H154226   1.361   5.153   1.234 -0.0706 -0.2202  0.5410
13380WAT     H254227   1.466   5.070   1.204 -1.8157 -1.8243 -1.4430
13380WAT    EPW54228   1.403   5.088   1.247  0.0869  0.3033 -0.6202
13381WAT      O54229   5.005   0.044   3.187  0.3172 -0.2143 -0.2856
13381WAT     H154230   4.951   0.043   3.119  0.7314 -1.4740 -0.6216
13381WAT     H254231   4.954   0.062   3.255 -0.2632  0.0731 -0.7936
13381WAT    EPW54232   4.990   0.047   3.187  0.0692  0.3429 -0.3750
13382WAT      O54233   2.639   5.712   3.211 -0.2749 -0.5818 -0.4293
13382WAT     H154234   2.649   5.799   3.215  1.8949 -0.8156  0.5192
13382WAT     H254235   2.643   5.696   3.125 -0.1501  0.2167 -0.5862
13382WAT    EPW54236   2.641   5.723   3.199  0.5001 -0.0318  0.1908
13383WAT      O54237   3.304   1.832   0.734  0.1995  0.1043  0.3933
13383WAT     H154238   3.356   1.872   0.791 -0.3263 -1.5928  2.1714
13383WAT     H254239   3.354   1.769   0.701  0.2645  0.5929 -0.4736
13383WAT    EPW54240   3.319   1.828   0.738 -0.2748  1.1990 -0.2373
13384WAT      O54241   2.587   6.847   1.372  0.4667 -0.1123  0.1791
13384WAT     H154242   2.508   6.875   1.395 -0.5384 -1.4097 -1.5397
13384WAT     H254243   2.627   6.920   1.344 -0.7735  0.2608 -0.6790
13384WAT    EPW54244   2.581   6.862   1.371  0.0545 -0.0357  0.1027
13385WAT      O54245   0.777   0.583   2.112 -0.4081  0.3235  0.3202
13385WAT     H154246   0.831   0.603   2.177 -0.0273  1.8509 -0.4130
13385WAT     H254247   0.745   0.660   2.088 -0.0883 -0.0987 -1.6679
13385WAT    EPW54248   0.780   0.597   2.118  0.3425  0.3146  0.5824
13386WAT      O54249   4.779   1.370   7.489  0.8375 -0.6034 -0.3710
13386WAT     H154250   4.829   1.298   7.488  0.5977 -0.9148  2.2329
13386WAT     H254251   4.788   1.400   7.571  0.3494  1.9466 -1.1771
13386WAT    EPW54252   4.788   1.364   7.501 -0.1287 -0.4698 -0.1106
13387WAT      O54253   4.799   3.648   5.296 -0.1434 -0.2297 -0.2579
13387WAT     H154254   4.781   3.584   5.352  0.4539  0.5920  0.9357
13387WAT     H254255   4.727   3.697   5.298 -0.9394 -1.2747 -1.8232
13387WAT    EPW54256   4.786   3.646   5.305 -0.2917  0.8325  0.6126
13388WAT      O54257   2.897   2.499   3.559 -0.2247 -0.3970 -0.2754
13388WAT     H154258   2.859   2.555   3.614 -2.5847 -1.6209 -0.5299
13388WAT     H254259   2.980   2.497   3.587 -0.0147  3.0647 -0.2244
13388WAT    EPW54260   2.903   2.507   3.571 -0.0486 -0.1140  0.2376
13389WAT      O54261   5.355   7.262   5.387 -0.0299 -0.3601  0.3900
13389WAT     H154262   5.390   7.303   5.456 -1.9276 -0.2303  1.3545
13389WAT     H254263   5.375   7.314   5.320 -0.7754  1.1891  1.3156
13389WAT    EPW54264   5.363   7.275   5.388 -0.4985 -0.3348 -0.4544
13390WAT      O54265   1.160   6.446   0.231  0.4656  0.7817 -0.2613
13390WAT     H154266   1.148   6.412   0.310 -2.1968  0.2516 -0.7978
13390WAT     H254267   1.145   6.531   0.242 -3.6719  0.2829 -0.6956
13390WAT    EPW54268   1.156   6.454   0.244  0.5231  0.6664  0.2991
13391WAT      O54269   1.336   5.174   5.162  0.0897  0.1375 -0.4168
13391WAT     H154270   1.310   5.093   5.146 -2.5036  0.5772  0.9773
13391WAT     H254271   1.413   5.164   5.201 -1.0495 -1.8764  1.5858
13391WAT    EPW54272   1.343   5.161   5.165  0.2438 -0.5822  0.8525
13392WAT      O54273   2.022   0.840   7.131 -0.1543 -0.1111  0.1125
13392WAT     H154274   2.030   0.897   7.065 -0.9654 -0.6676 -0.4847
13392WAT     H254275   2.097   0.849   7.175 -0.9717  2.8051  1.1572
13392WAT    EPW54276   2.034   0.850   7.127 -0.2131 -0.2869  0.6626
13393WAT      O54277   1.988   0.374   6.766 -0.0045  0.2957 -0.1831
13393WAT     H154278   2.041   0.329   6.818  0.1384 -0.5415 -1.0157
13393WAT     H254279   2.027   0.451   6.758  1.6358 -0.6077 -1.5233
13393WAT    EPW54280   2.001   0.379   6.772 -0.4135 -0.0351  0.3471
13394WAT      O54281   0.072   7.129   0.034 -0.3369 -0.3019  0.2440
13394WAT     H154282   0.019   7.117  -0.034 -0.1989  1.5856 -0.2542
13394WAT     H254283   0.151   7.138  -0.002 -0.2910  0.9367  0.5776
13394WAT    EPW54284   0.076   7.129   0.019 -0.1294  0.5936 -0.4412
13395WAT      O54285   4.228   5.197   3.519  0.8386  0.4411 -0.0880
13395WAT     H154286   4.193   5.170   3.594  1.6885  0.9600  0.5036
13395WAT     H254287   4.230   5.125   3.470 -0.7259  0.3144 -0.0344
13395WAT    EPW54288   4.223   5.183   3.523 -0.4101  0.0288 -0.3921
13396WAT      O54289   2.738   6.220   2.240 -0.0860  0.3357  0.1590
13396WAT     H154290   2.659   6.257   2.242 -1.2355 -1.7471 -1.8270
13396WAT     H254291   2.789   6.282   2.206 -0.8893  1.6365  1.2467
13396WAT    EPW54292   2.733   6.235   2.235  0.3774  0.0798 -0.0022
13397WAT      O54293   7.612   1.216   4.763  0.3175 -0.1484  0.0145
13397WAT     H154294   7.629   1.290   4.806 -1.5783  0.7143 -0.5815
13397WAT     H254295   7.580   1.164   4.825  1.5225 -0.4505  0.4094
13397WAT    EPW54296   7.610   1.219   4.778  0.5871 -0.2522  0.0029
13398WAT      O54297   6.791   3.207   2.128  0.8017  0.6134 -0.0345
13398WAT     H154298   6.841   3.265   2.169  0.5483  1.2101 -0.5605
13398WAT     H254299   6.787   3.140   2.184 -0.5041  1.8634  1.4453
13398WAT    EPW54300   6.798   3.205   2.142 -0.2643 -0.2524  0.6836
13399WAT      O54301   5.087   5.708   6.999 -0.2286  0.0677  0.3490
13399WAT     H154302   5.136   5.688   7.068  1.0714 -0.1189 -0.5878
13399WAT     H254303   5.009   5.727   7.033 -0.3670 -2.4348  1.6787
13399WAT    EPW54304   5.082   5.708   7.014 -0.3509 -0.0383  0.3741
13400WAT      O54305   2.539   0.620   1.153 -0.4227 -0.0260  0.1490
13400WAT     H154306   2.577   0.555   1.196 -1.7719 -1.2511 -0.4262
13400WAT     H254307   2.457   0.620   1.183 -0.1444  2.3635  1.1698
13400WAT    EPW54308   2.532   0.610   1.164 -0.5962 -0.0792  0.0536
13401WAT      O54309   1.919   6.219   0.439  0.9603  0.6451 -0.3254
13401WAT     H154310   1.884   6.189   0.366 -0.2699  1.8347 -0.2558
13401WAT     H254311   1.953   6.296   0.416  1.2515  0.6811  0.1924
13401WAT    EPW54312   1.919   6.226   0.425 -0.4047 -0.7857  0.1548
13402WAT      O54313   2.998   7.565   5.491 -0.1774 -0.0591 -0.3943
13402WAT     H154314   3.025   7.492   5.531  2.1575  2.2477  2.7475
13402WAT     H254315   3.049   7.570   5.421 -2.0557 -2.5215 -2.1067
13402WAT    EPW54316   3.009   7.555   5.487 -0.2095  0.3430  0.6041
13403WAT      O54317   7.070   7.487   5.545  0.5196  0.5716 -0.0007
13403WAT     H154318   7.134   7.442   5.584 -0.2209  1.4443  2.4100
13403WAT     H254319   7.000   7.470   5.595 -0.7880  0.9360 -1.6090
13403WAT    EPW54320   7.069   7.478   5.558 -0.0590 -1.3235 -0.5569
13404WAT      O54321   2.758   6.163   7.348 -0.0566  0.1943 -0.0532
13404WAT     H154322   2.723   6.088   7.321  1.8248 -1.5777  2.0920
13404WAT     H254323   2.763   6.154   7.435 -0.0698  2.9798  0.3519
13404WAT    EPW54324   2.753   6.151   7.357  0.1407 -0.1351 -0.4467
13405WAT      O54325   5.906   3.673   3.939 -0.1939 -0.9002 -0.0961
13405WAT     H154326   5.872   3.633   4.008  0.7043 -1.0952  0.2425
13405WAT     H254327   5.896   3.616   3.874 -0.0658 -1.1586  0.1107
13405WAT    EPW54328   5.900   3.659   3.940 -0.5900  0.1750 -0.1483
13406WAT      O54329   6.541   6.640   6.524 -0.3450 -0.2167  0.5171
13406WAT     H154330   6.544   6.716   6.567  0.1165 -0.1992  0.4594
13406WAT     H254331   6.468   6.602   6.554 -0.7317  0.3756  0.3258
13406WAT    EPW54332   6.531   6.646   6.535 -0.8654  0.2868 -0.4458
13407WAT      O54333   4.275   3.862   2.071 -0.2959  0.2091 -0.3782
13407WAT     H154334   4.284   3.874   2.157  1.3505  0.6650 -0.5924
13407WAT     H254335   4.305   3.781   2.059 -0.3293  0.2228 -0.5477
13407WAT    EPW54336   4.281   3.852   2.082 -0.0735  0.2116  0.5177
13408WAT      O54337   6.286   0.064   7.084 -0.0827 -0.2283 -0.2822
13408WAT     H154338   6.279   0.106   7.160  0.3873  1.9366 -1.3330
13408WAT     H254339   6.239   0.114   7.029  2.8733  0.6567 -2.2414
13408WAT    EPW54340   6.278   0.078   7.087  0.8155 -0.2966  0.0035
13409WAT      O54341   2.210   5.895   1.221 -0.5343  0.1394  0.1320
13409WAT     H154342   2.236   5.933   1.147  0.9763 -0.1148  0.4960
13409WAT     H254343   2.279   5.905   1.274 -0.5383 -2.0507  0.6351
13409WAT    EPW54344   2.224   5.902   1.218  0.2608 -0.1606 -0.2401
13410WAT      O54345   2.523   0.491   0.891  0.8880  0.2155 -0.1553
13410WAT     H154346   2.459   0.516   0.945 -0.2370 -2.8079  0.1066
13410WAT     H254347   2.591   0.539   0.916 -1.1773  3.7420 -0.5656
13410WAT    EPW54348   2.523   0.502   0.902 -0.3182 -0.1708 -0.0006
13411WAT      O54349   2.028   3.919   1.758  0.4779 -0.5640 -0.6281
13411WAT     H154350   1.946   3.921   1.790 -0.9892 -1.9495 -3.8769
13411WAT     H254351   2.064   3.851   1.798 -0.2644 -0.5555  0.0919
13411WAT    EPW54352   2.021   3.909   1.769 -0.1944 -0.3859  0.0540
13412WAT      O54353   6.559   6.219   5.402  0.5227 -0.0844 -0.2623
13412WAT     H154354   6.543   6.304   5.414 -0.6944 -0.1708 -1.0740
13412WAT     H254355   6.528   6.204   5.322  3.1757 -0.7130 -1.2654
13412WAT    EPW54356   6.552   6.229   5.392  0.3289  0.4552  0.1866
13413WAT      O54357   5.149   3.139   5.929  0.2052  0.0172 -0.2574
13413WAT     H154358   5.120   3.197   5.871  0.3480 -0.9099 -1.2820
13413WAT     H254359   5.190   3.079   5.881  1.0704 -0.3447  0.8785
13413WAT    EPW54360   5.151   3.138   5.913 -0.3644  0.0727  0.0651
13414WAT      O54361   1.730   1.953   5.964 -0.0055 -0.0489 -0.2781
13414WAT     H154362   1.783   1.983   5.902 -0.1716  0.4753 -0.1702
13414WAT     H254363   1.651   1.980   5.939 -0.1162 -0.1171 -0.0071
13414WAT    EPW54364   1.726   1.961   5.951  0.1418  0.2749  0.0627
13415WAT      O54365   1.887   1.068   1.463  0.2553 -0.2050 -0.7253
13415WAT     H154366   1.864   1.105   1.388  0.8684 -1.4154 -1.5328
13415WAT     H254367   1.818   1.084   1.515 -0.1334  0.7208 -1.4922
13415WAT    EPW54368   1.873   1.076   1.460 -0.1104  0.5485 -0.2130
13416WAT      O54369   1.949   1.982   4.693  0.0732  0.0603 -0.1087
13416WAT     H154370   1.911   1.924   4.745  3.3599 -1.2513  1.0842
13416WAT     H254371   2.002   2.027   4.746  1.0327  0.9994 -1.7502
13416WAT    EPW54372   1.951   1.980   4.708 -0.0291  0.4024  1.0110
13417WAT      O54373   1.050   6.720   4.652  0.4553  0.2257 -0.0404
13417WAT     H154374   0.991   6.720   4.717  1.2217  2.4390  0.7353
13417WAT     H254375   1.118   6.762   4.686  1.2782  0.5252 -1.9536
13417WAT    EPW54376   1.051   6.726   4.667  0.1126 -0.2869  0.2331
13418WAT      O54377   4.227   1.908   3.801  0.3643  0.4232 -0.0027
13418WAT     H154378   4.151   1.917   3.842  0.8822  2.1002  0.6874
13418WAT     H254379   4.264   1.986   3.809  1.9512 -0.1979 -0.7633
13418WAT    EPW54380   4.221   1.921   3.809  0.0498 -0.2526 -0.3726
13419WAT      O54381   1.337   2.063   7.488  0.1088  0.3898  0.0449
13419WAT     H154382   1.371   2.076   7.568  1.4947 -0.4710 -0.3581
13419WAT     H254383   1.266   2.015   7.504  0.5169 -0.0022  0.7598
13419WAT    EPW54384   1.332   2.058   7.502  0.5346 -0.1832 -0.0641
13420WAT      O54385   5.999   4.422   1.266 -0.2939  0.4330  0.1207
13420WAT     H154386   5.950   4.486   1.233  0.2709  0.9537  0.2736
13420WAT     H254387   6.045   4.461   1.329 -0.2663 -0.2238  0.5278
13420WAT    EPW54388   5.998   4.437   1.271  0.1172  0.2306 -0.5767
13421WAT      O54389   2.510   3.563   0.524  0.0890  0.2323  0.1847
13421WAT     H154390   2.438   3.610   0.536  0.0219  0.0796  0.3925
13421WAT     H254391   2.496   3.523   0.447 -0.3906 -0.3943  0.5846
13421WAT    EPW54392   2.497   3.564   0.515 -0.0293  0.1333  0.2374
13422WAT      O54393   2.296   1.119   7.047 -0.3439 -0.1189 -0.1168
13422WAT     H154394   2.374   1.116   7.008 -0.0326 -1.9163  0.5206
13422WAT     H254395   2.241   1.091   6.985 -0.3268  0.1008 -0.2325
13422WAT    EPW54396   2.299   1.114   7.032  0.2001 -0.0086 -0.0716
13423WAT      O54397   4.775   2.207   0.870 -0.2187  0.4426  0.6810
13423WAT     H154398   4.732   2.133   0.854  0.1405 -0.0137  1.7629
13423WAT     H254399   4.854   2.193   0.836  0.0305  0.0978  1.3866
13423WAT    EPW54400   4.780   2.194   0.862 -0.1110 -0.1352  0.1513
13424WAT      O54401   2.462   3.195   7.548  0.3221 -0.5584  0.5422
13424WAT     H154402   2.501   3.270   7.566 -0.6934  0.2422 -0.4632
13424WAT     H254403   2.386   3.219   7.513 -0.4029 -2.0609  1.0148
13424WAT    EPW54404   2.457   3.209   7.545  0.0949  0.5112 -0.0634
13425WAT      O54405   1.126   2.120   6.666 -0.0463 -0.4331  0.2045
13425WAT     H154406   1.154   2.199   6.689 -0.0954 -0.1882 -0.5297
13425WAT     H254407   1.191   2.066   6.690 -0.3558 -0.2860  1.4410
13425WAT    EPW54408   1.140   2.123   6.673 -0.0748  0.2269  0.4062
13426WAT      O54409   5.429   1.478   6.026 -0.2779  0.5828  0.1043
13426WAT     H154410   5.386   1.512   5.957 -1.1167 -0.1453  0.2491
13426WAT     H254411   5.472   1.546   6.058 -0.9594  1.2488 -0.3432
13426WAT    EPW54412   5.429   1.493   6.021 -0.0060  0.5639  0.2488
13427WAT      O54413   2.136   4.513   4.422 -0.3265 -0.1717 -0.3572
13427WAT     H154414   2.197   4.464   4.383 -0.1565  0.8972 -1.4962
13427WAT     H254415   2.137   4.485   4.505  2.0532  0.1266 -0.2160
13427WAT    EPW54416   2.145   4.502   4.428  0.4387 -0.1667 -0.2883
13428WAT      O54417   4.381   6.598   5.795 -0.0237  0.0541 -0.0875
13428WAT     H154418   4.436   6.653   5.756  1.4402 -0.2998  1.3506
13428WAT     H254419   4.310   6.646   5.809  0.0189  0.6318 -1.6575
13428WAT    EPW54420   4.378   6.613   5.791 -0.5435 -0.2215 -0.8130
13429WAT      O54421   4.404   5.317   7.050 -0.0666 -0.1016 -0.0229
13429WAT     H154422   4.404   5.240   7.090 -1.2447  0.2825  0.7571
13429WAT     H254423   4.338   5.360   7.087 -1.3948  0.2156 -2.5301
13429WAT    EPW54424   4.394   5.312   7.062  0.4129  0.2468  0.2424
13430WAT      O54425   3.530   5.872   4.191 -0.0210  0.4179 -0.1835
13430WAT     H154426   3.551   5.809   4.247 -0.7007 -0.3928 -0.8312
13430WAT     H254427   3.528   5.832   4.114  0.3358  1.3992 -0.7251
13430WAT    EPW54428   3.533   5.857   4.188 -0.2943  0.2673 -0.1750
13431WAT      O54429   1.151   6.578   1.451 -0.6049  0.0929 -0.0419
13431WAT     H154430   1.134   6.519   1.513 -0.3606  0.7078  0.6326
13431WAT     H254431   1.094   6.642   1.467 -0.1672  0.5091 -0.0913
13431WAT    EPW54432   1.140   6.579   1.463  0.2758 -0.7226 -0.3539
13432WAT      O54433   2.855   1.558   1.266  0.1027 -0.6459  0.1281
13432WAT     H154434   2.807   1.565   1.194 -0.4223  1.5020  0.6064
13432WAT     H254435   2.797   1.550   1.330  0.5250 -1.5958  0.4020
13432WAT    EPW54436   2.839   1.558   1.264 -0.2488  0.1116  0.1011
13433WAT      O54437   3.182   1.542   6.051 -0.3735 -0.0704 -0.3295
13433WAT     H154438   3.139   1.489   5.997 -0.2915 -0.7350  0.2361
13433WAT     H254439   3.212   1.605   5.999  1.9238 -2.0098 -1.5601
13433WAT    EPW54440   3.180   1.543   6.036  0.0581 -0.1277  0.2543
13434WAT      O54441   4.194   6.491   3.991  0.0299  0.5828  0.2663
13434WAT     H154442   4.219   6.410   3.970  1.9768  0.3279  2.9745
13434WAT     H254443   4.268   6.536   3.993 -0.9091  2.2381 -0.3002
13434WAT    EPW54444   4.208   6.486   3.988 -0.9581 -0.4342  0.1415
13435WAT      O54445   7.393   6.651   6.908 -0.0845  0.0711 -0.2241
13435WAT     H154446   7.321   6.700   6.902 -0.3037 -0.2600 -0.3227
13435WAT     H254447   7.362   6.571   6.922  0.2842  0.0217  0.3550
13435WAT    EPW54448   7.378   6.647   6.909 -0.6371 -0.3700  0.3824
13436WAT      O54449   5.335   6.575   0.982  0.1182  0.9694  0.2453
13436WAT     H154450   5.280   6.536   0.926 -0.2963 -0.2813  1.4634
13436WAT     H254451   5.387   6.510   1.008 -0.0175  1.3914  1.6648
13436WAT    EPW54452   5.334   6.559   0.978 -0.2561  0.0553 -0.4384
13437WAT      O54453   4.707   3.393   0.756  0.5748  0.0282  0.0481
13437WAT     H154454   4.651   3.372   0.693  1.2968  0.6104 -0.8088
13437WAT     H254455   4.666   3.457   0.799  0.4831  0.3190 -0.4588
13437WAT    EPW54456   4.693   3.399   0.753 -0.1068  0.2462 -0.0599
13438WAT      O54457   6.916   4.620   0.620  0.0002  0.3761 -0.1022
13438WAT     H154458   6.910   4.702   0.592 -0.3684  0.9102  1.4063
13438WAT     H254459   6.954   4.578   0.554 -1.8136  1.2638 -1.8283
13438WAT    EPW54460   6.920   4.626   0.606 -0.4277  0.1504  0.0373
13439WAT      O54461   1.224   1.080   0.673 -0.2543  0.2280 -0.3290
13439WAT     H154462   1.214   1.165   0.693  0.3387  0.3784 -0.6649
13439WAT     H254463   1.166   1.041   0.725 -0.6482  0.8515 -0.2821
13439WAT    EPW54464   1.214   1.087   0.684  0.2141  0.1421 -0.1772
13440WAT      O54465   2.444   2.089   7.304 -0.1547 -0.3061  0.6606
13440WAT     H154466   2.490   2.130   7.243 -0.7194  2.5979  2.0034
13440WAT     H254467   2.441   2.007   7.276  1.2083  0.4899 -2.1938
13440WAT    EPW54468   2.450   2.083   7.291  0.4871  0.1908 -0.2284
13441WAT      O54469   3.423   7.154   6.546  0.0252 -1.0147 -0.0241
13441WAT     H154470   3.464   7.121   6.477 -1.4181 -0.9590 -0.9390
13441WAT     H254471   3.485   7.202   6.584  0.7693 -0.7363 -1.4899
13441WAT    EPW54472   3.438   7.157   6.541 -0.0693  0.2519 -0.5534
13442WAT      O54473   0.642   4.334   2.765 -0.2337  0.5115 -0.6591
13442WAT     H154474   0.728   4.326   2.777  0.0037  2.6082 -0.7497
13442WAT     H254475   0.609   4.315   2.844  0.3540  0.4182 -0.4295
13442WAT    EPW54476   0.650   4.330   2.778 -0.4030  0.4134  0.3543
13443WAT      O54477   6.024   7.193   6.024 -0.1820  0.2922 -0.3637
13443WAT     H154478   6.086   7.241   6.062 -0.2381  0.4300 -0.4473
13443WAT     H254479   6.039   7.205   5.939 -0.3824  0.3982 -0.3842
13443WAT    EPW54480   6.035   7.202   6.017  0.2802  0.8028 -0.7785
13444WAT      O54481   4.258   7.324   7.470 -0.6507 -0.3022 -1.1332
13444WAT     H154482   4.297   7.357   7.541 -0.7663 -1.3571 -0.5698
13444WAT     H254483   4.250   7.394   7.417 -0.7937  0.5451 -0.0208
13444WAT    EPW54484   4.263   7.339   7.472 -0.3098  0.2778  0.0426
13445WAT      O54485   3.497   3.325   7.357  0.8885 -0.1264  0.1946
13445WAT     H154486   3.414   3.321   7.385  0.6426  1.1344 -0.2960
13445WAT     H254487   3.530   3.394   7.398  1.9076 -0.9436  0.8265
13445WAT    EPW54488   3.490   3.334   7.367 -0.0946 -0.3148 -0.1148
13446WAT      O54489   1.711   0.553   6.096 -0.3908  0.5392 -0.1210
13446WAT     H154490   1.779   0.513   6.135 -1.4624 -2.9773 -1.3912
13446WAT     H254491   1.737   0.558   6.013 -0.3439  2.6376 -0.0269
13446WAT    EPW54492   1.725   0.548   6.089 -0.2340 -0.0378 -0.0502
13447WAT      O54493   2.105   3.195   6.410 -0.3584 -0.1482  0.1887
13447WAT     H154494   2.055   3.226   6.474 -0.3416 -0.3104  0.2802
13447WAT     H254495   2.132   3.267   6.369 -0.3204 -0.0400  0.4005
13447WAT    EPW54496   2.102   3.210   6.413  0.2269  0.3219  0.3014
13448WAT      O54497   2.608   1.374   7.205 -0.1712  0.4907 -0.4201
13448WAT     H154498   2.675   1.427   7.188 -0.0649  0.5934  0.2803
13448WAT     H254499   2.641   1.294   7.192 -0.3757  0.5888 -1.6256
13448WAT    EPW54500   2.623   1.370   7.201  0.4113 -0.4932  0.0278
13449WAT      O54501   2.047   7.264   7.363 -0.0749  0.0373 -0.4938
13449WAT     H154502   2.022   7.241   7.282  0.3475  3.7756 -1.8765
13449WAT     H254503   2.130   7.289   7.353  0.2093 -0.0382  1.2814
13449WAT    EPW54504   2.056   7.264   7.350  0.0214 -0.2664  1.0228
13450WAT      O54505   6.994   0.424   6.073 -0.1798 -0.7172 -0.1602
13450WAT     H154506   7.036   0.400   6.146 -1.6242  0.3436  1.1104
13450WAT     H254507   6.947   0.354   6.051 -2.2713 -0.1105  1.9238
13450WAT    EPW54508   6.993   0.410   6.081 -0.3185 -0.2277  0.3134
13451WAT      O54509   3.128   1.406   4.239  0.4307  0.2167 -0.0312
13451WAT     H154510   3.145   1.438   4.160 -0.1801  0.7596  0.0516
13451WAT     H254511   3.060   1.453   4.266  0.8173  0.2284  0.9425
13451WAT    EPW54512   3.120   1.417   4.231  0.2236 -0.6386 -0.1054
13452WAT      O54513   6.845   1.671   5.387  0.0340  0.1275 -0.1232
13452WAT     H154514   6.909   1.612   5.384  0.0719  0.1732 -0.2072
13452WAT     H254515   6.837   1.689   5.472 -0.1683 -0.2073 -0.0672
13452WAT    EPW54516   6.853   1.665   5.399  0.1499 -0.2351  0.4209
13453WAT      O54517   5.066   4.649   3.187  0.1000 -0.5219 -0.0399
13453WAT     H154518   5.029   4.578   3.223 -0.7340 -0.6591 -1.1412
13453WAT     H254519   4.999   4.691   3.150  0.7575  0.2745 -0.3568
13453WAT    EPW54520   5.051   4.645   3.187  0.5126  0.0197  0.0229
13454WAT      O54521   3.143   4.068   5.793 -0.4573  0.1787  0.1307
13454WAT     H154522   3.164   3.983   5.785  0.3097  0.4344 -0.6987
13454WAT     H254523   3.184   4.092   5.866  1.2921  0.3895 -0.8680
13454WAT    EPW54524   3.152   4.059   5.802 -0.0152 -0.4559 -0.0336
13455WAT      O54525   3.076   1.277   3.134  0.1470 -0.1905 -0.7409
13455WAT     H154526   3.002   1.311   3.103  0.8335  0.9932 -1.1743
13455WAT     H254527   3.088   1.320   3.209 -0.3839 -1.4901  0.1226
13455WAT    EPW54528   3.067   1.289   3.141  0.0462 -0.2531  0.4249
13456WAT      O54529   5.794   7.033   4.739 -0.0881  0.9498  0.1654
13456WAT     H154530   5.719   7.068   4.714 -0.8032  0.2077  1.2059
13456WAT     H254531   5.803   6.964   4.687 -0.5276  0.5938  0.5552
13456WAT    EPW54532   5.785   7.028   4.728  0.5340 -0.1010  0.2612
13457WAT      O54533   3.548   0.995   1.398  0.1370 -0.1928 -0.0167
13457WAT     H154534   3.472   1.016   1.434  0.6442  0.0734  0.9360
13457WAT     H254535   3.555   0.909   1.413 -0.0408 -0.2443 -0.2303
13457WAT    EPW54536   3.538   0.985   1.405  0.1565 -0.0918 -0.1903
13458WAT      O54537   3.241   5.344   1.663 -0.0772  0.1991  0.0012
13458WAT     H154538   3.222   5.339   1.577  1.5233  0.0525 -0.3776
13458WAT     H254539   3.249   5.429   1.677  1.1962  0.1601 -0.3841
13458WAT    EPW54540   3.239   5.356   1.652 -0.0263 -0.1042 -0.3749
13459WAT      O54541   6.777   3.409   3.278 -0.9837 -0.2137  0.2114
13459WAT     H154542   6.780   3.341   3.332 -1.5521 -1.8894 -1.7146
13459WAT     H254543   6.856   3.445   3.284  0.1990 -2.5225 -0.4054
13459WAT    EPW54544   6.789   3.404   3.287 -0.1367  0.0406  0.5403
13460WAT      O54545   7.458   2.598   1.922 -0.4897  0.4980 -0.0908
13460WAT     H154546   7.507   2.577   1.853 -0.8222  2.2978 -0.9062
13460WAT     H254547   7.379   2.611   1.888 -1.3818 -1.3757  1.0743
13460WAT    EPW54548   7.454   2.597   1.907 -0.1844  0.1859 -0.1641
13461WAT      O54549   7.083   3.214   3.564  0.5338 -0.3179 -0.3310
13461WAT     H154550   7.093   3.137   3.604 -0.3987 -1.4050 -2.0511
13461WAT     H254551   7.163   3.249   3.566  1.1328 -1.6397 -0.0838
13461WAT    EPW54552   7.096   3.208   3.570  0.0524  0.0249 -0.1951
13462WAT      O54553   5.848   5.424   1.758 -0.0526 -0.0855  0.1197
13462WAT     H154554   5.815   5.503   1.775 -1.1063 -0.2713 -0.8686
13462WAT     H254555   5.796   5.370   1.802  0.8733 -0.2416  1.0709
13462WAT    EPW54556   5.835   5.428   1.767  0.5035  0.1102 -0.1349
13463WAT      O54557   3.796   1.370   6.312 -0.1959  0.1205 -0.2702
13463WAT     H154558   3.831   1.296   6.343 -0.9026 -0.2501 -0.3200
13463WAT     H254559   3.766   1.347   6.233  1.4288  1.0057 -1.1949
13463WAT    EPW54560   3.797   1.356   6.305 -0.2672  0.0921  0.2431
13464WAT      O54561   6.009   2.279   0.232  0.2990  0.5505 -0.5946
13464WAT     H154562   5.959   2.273   0.303  1.0660 -0.2006 -0.0971
13464WAT     H254563   5.972   2.223   0.176  1.2123 -0.9169  0.1958
13464WAT    EPW54564   5.996   2.270   0.234  0.3184 -0.6090 -0.2207
13465WAT      O54565   5.377   2.485   5.778 -0.4828  0.1031 -0.2662
13465WAT     H154566   5.440   2.546   5.777  0.2748 -0.6641 -1.9067
13465WAT     H254567   5.310   2.525   5.739  0.2435 -0.2885 -2.0119
13465WAT    EPW54568   5.376   2.500   5.772 -0.4056 -0.0198 -0.2759
13466WAT      O54569   7.090   4.401   0.466  0.4000 -0.2673 -0.2165
13466WAT     H154570   7.048   4.326   0.451 -0.4812 -0.2113  1.6688
13466WAT     H254571   7.164   4.375   0.504  0.9148 -0.2475 -1.1891
13466WAT    EPW54572   7.094   4.386   0.470  0.3329 -0.3532  0.2651
13467WAT      O54573   6.432   4.527   0.817  0.0947  0.0132 -0.5880
13467WAT     H154574   6.476   4.477   0.761  0.1733  0.2805 -0.7703
13467WAT     H254575   6.368   4.560   0.768 -1.1379 -1.4325 -0.0086
13467WAT    EPW54576   6.429   4.525   0.801  0.2804  0.2009 -0.0119
13468WAT      O54577   1.022   5.170   2.231 -0.2800 -0.1840 -0.1244
13468WAT     H154578   0.961   5.193   2.172 -2.7292 -1.1758  1.8296
13468WAT     H254579   1.018   5.083   2.232  0.3893 -0.2193  0.8120
13468WAT    EPW54580   1.012   5.161   2.223  0.4724 -0.2615  0.9601
13469WAT      O54581   7.124   0.758   4.607 -0.8980  0.1146  0.6539
13469WAT     H154582   7.085   0.706   4.549  2.4575 -1.7664 -0.2063
13469WAT     H254583   7.121   0.713   4.681 -1.8955  0.8112  1.0578
13469WAT    EPW54584   7.118   0.744   4.610  0.6408  0.6370  0.1989
13470WAT      O54585   6.213   1.104   5.193 -0.1739  0.2289  0.0323
13470WAT     H154586   6.179   1.177   5.159 -1.7019 -0.4765 -0.0156
13470WAT     H254587   6.284   1.091   5.144 -1.2425  0.3280 -1.6303
13470WAT    EPW54588   6.219   1.113   5.180  0.0275  0.1129  0.1526
13471WAT      O54589   2.116   2.110   5.967  0.0869 -0.0289  0.5430
13471WAT     H154590   2.110   2.196   5.979  1.1934  0.2046 -0.4068
13471WAT     H254591   2.051   2.092   5.912  0.5413  0.4154 -0.1591
13471WAT    EPW54592   2.106   2.120   5.960 -0.4305 -0.3599  0.2635
13472WAT      O54593   1.536   1.229   6.593 -0.2455 -0.3650  0.1103
13472WAT     H154594   1.581   1.275   6.651 -0.3723  0.8866 -0.7348
13472WAT     H254595   1.461   1.211   6.634  0.1746 -0.5970  0.7707
13472WAT    EPW54596   1.531   1.233   6.607  0.7082 -0.2215  0.2506
13473WAT      O54597   2.825   2.093   0.844 -0.1323 -0.5616  0.0829
13473WAT     H154598   2.845   2.173   0.817  0.2865 -0.3349  1.0250
13473WAT     H254599   2.741   2.085   0.823  0.1620 -0.3973 -1.2320
13473WAT    EPW54600   2.815   2.104   0.837  0.6993 -0.4502 -0.0009
13474WAT      O54601   1.790   5.557   2.085 -0.0886 -0.4997 -0.3135
13474WAT     H154602   1.801   5.642   2.096 -0.5673 -0.2821 -1.3852
13474WAT     H254603   1.871   5.525   2.084  0.2079  0.2172 -1.8425
13474WAT    EPW54604   1.803   5.565   2.087 -0.0813  0.0465  0.1660
13475WAT      O54605   0.859   4.615   0.920 -0.6252  0.5051 -0.2491
13475WAT     H154606   0.870   4.533   0.945  0.8655  0.0543 -2.1487
13475WAT     H254607   0.915   4.660   0.970 -0.6474  0.2017  0.0474
13475WAT    EPW54608   0.869   4.610   0.931 -0.6230 -0.6766  0.3318
13476WAT      O54609   2.149   5.403   5.131  0.5768 -0.3070  0.0063
13476WAT     H154610   2.198   5.392   5.059  0.7391  0.7179 -0.0698
13476WAT     H254611   2.182   5.476   5.166  1.0221 -1.2137  1.5774
13476WAT    EPW54612   2.161   5.412   5.125 -0.5822 -0.2055  0.4757
13477WAT      O54613   6.541   1.628   6.057  0.0740 -0.6534  0.1482
13477WAT     H154614   6.553   1.714   6.048 -1.3132 -0.5324 -0.7788
13477WAT     H254615   6.463   1.614   6.020  0.4304 -2.3649 -0.0280
13477WAT    EPW54616   6.531   1.639   6.050 -0.2102  0.3239 -0.0855
13478WAT      O54617   5.456   6.302   5.809  0.2222  0.2321 -0.1913
13478WAT     H154618   5.474   6.287   5.893 -0.3184  1.7163  0.2139
13478WAT     H254619   5.534   6.325   5.776  0.3791 -0.0465 -0.0198
13478WAT    EPW54620   5.471   6.303   5.817  0.0059 -0.2541 -0.1737
13479WAT      O54621   3.602   0.625   6.454 -0.4661  0.3289  0.1647
13479WAT     H154622   3.635   0.616   6.534  2.0718 -1.2597 -0.9340
13479WAT     H254623   3.609   0.545   6.420 -2.1596  0.7944 -1.4395
13479WAT    EPW54624   3.608   0.612   6.461 -0.3587 -0.2524 -0.0601
13480WAT      O54625   1.403   2.315   5.423 -0.0867  0.2338 -0.1817
13480WAT     H154626   1.341   2.254   5.427  0.4932 -0.3402  0.4635
13480WAT     H254627   1.365   2.385   5.458 -0.6226  0.1236 -0.5340
13480WAT    EPW54628   1.388   2.316   5.429 -0.0380 -0.0437 -0.4307
13481WAT      O54629   4.790   4.954   0.431  0.4411  0.4523  0.0034
13481WAT     H154630   4.768   4.986   0.353 -0.3691  1.8404  0.7569
13481WAT     H254631   4.809   5.025   0.478  2.2450 -0.4241  0.7138
13481WAT    EPW54632   4.789   4.969   0.426  0.0009 -0.1660 -0.9100
13482WAT      O54633   4.750   4.948   5.522  0.0706 -0.1129 -0.1340
13482WAT     H154634   4.745   4.876   5.571 -2.0421  0.8965  1.2941
13482WAT     H254635   4.679   4.943   5.471 -1.1929  1.7661  1.3081
13482WAT    EPW54636   4.739   4.936   5.522  0.5010  0.6483 -0.0940
13483WAT      O54637   2.296   2.510   1.915  0.2707  0.9557  0.4258
13483WAT     H154638   2.283   2.433   1.954  0.6916  0.3265 -0.6164
13483WAT     H254639   2.273   2.568   1.975 -0.8751  0.0078  0.9543
13483WAT    EPW54640   2.291   2.507   1.929  0.0292  0.0895  0.1478
13484WAT      O54641   5.642   7.218   4.007  0.1969  0.2485 -0.3873
13484WAT     H154642   5.593   7.254   4.069 -0.8816 -1.6378 -0.0859
13484WAT     H254643   5.702   7.280   3.991 -0.4972  1.4567  1.3074
13484WAT    EPW54644   5.644   7.233   4.014  0.2125  0.3627  0.2340
13485WAT      O54645   0.442   4.030   1.332 -0.2919 -0.4218 -0.0070
13485WAT     H154646   0.498   4.095   1.347  0.0629 -0.7408  0.0395
13485WAT     H254647   0.450   4.015   1.247 -0.2933 -0.4834  0.0038
13485WAT    EPW54648   0.451   4.038   1.322  0.1129  0.2005  0.1396
13486WAT      O54649   2.981   4.661   6.460  0.1416 -0.4188 -0.5060
13486WAT     H154650   2.972   4.602   6.397 -0.4217  0.4025 -1.2238
13486WAT     H254651   2.939   4.626   6.528 -0.0511 -0.8975 -0.8694
13486WAT    EPW54652   2.974   4.647   6.461  0.4521 -0.0145  0.5143
13487WAT      O54653   0.329   7.390   0.419  0.4611 -0.1594 -0.0574
13487WAT     H154654   0.335   7.461   0.368  0.4569 -0.5317 -0.5857
13487WAT     H254655   0.257   7.350   0.390  1.0805 -0.9636 -0.5259
13487WAT    EPW54656   0.319   7.395   0.407  0.6319 -0.2910  0.3283
13488WAT      O54657   1.225   4.906   5.130 -0.1206 -0.7158 -0.1311
13488WAT     H154658   1.142   4.884   5.143  0.1666 -1.3160  0.8739
13488WAT     H254659   1.261   4.834   5.097 -0.0768 -0.3318 -0.9405
13488WAT    EPW54660   1.218   4.892   5.127  0.6912  0.5055  0.0955
13489WAT      O54661   7.368   4.110   0.300  0.0804  0.2004 -0.0240
13489WAT     H154662   7.367   4.029   0.268 -1.3222  0.8672 -1.8445
13489WAT     H254663   7.437   4.147   0.262  0.0440  0.2028 -0.0864
13489WAT    EPW54664   7.378   4.104   0.290  0.3469  0.4296 -0.0585
13490WAT      O54665   3.115   7.372   6.762 -0.1470  0.3953  0.3426
13490WAT     H154666   3.073   7.297   6.777  1.3327  0.0426  3.3652
13490WAT     H254667   3.054   7.422   6.725 -2.0128 -1.3657  0.8066
13490WAT    EPW54668   3.100   7.368   6.759 -0.8841  0.2626 -0.0102
13491WAT      O54669   4.854   4.437   0.653 -0.3016 -0.3989  0.0688
13491WAT     H154670   4.767   4.439   0.647 -0.4279 -0.8239  1.4214
13491WAT     H254671   4.879   4.509   0.610 -1.2038 -1.0111 -1.5756
13491WAT    EPW54672   4.845   4.448   0.645 -0.9228  0.2046 -0.4645
13492WAT      O54673   7.572   6.143   0.598 -0.3491 -1.0895 -0.1512
13492WAT     H154674   7.586   6.171   0.679 -0.3393 -1.5605  0.0103
13492WAT     H254675   7.492   6.172   0.580  0.2004  0.3071 -0.5258
13492WAT    EPW54676   7.563   6.151   0.607  0.6314  0.5549  0.5858
13493WAT      O54677   3.855   3.352   1.309  0.7407  0.4012 -0.5144
13493WAT     H154678   3.915   3.415   1.309  0.9779  0.1935  0.2830
13493WAT     H254679   3.888   3.292   1.255  0.3236  1.1175 -1.5898
13493WAT    EPW54680   3.868   3.352   1.301 -0.1997  0.2094 -0.3070
13494WAT      O54681   6.684   2.162   5.375  0.5327 -0.5822 -0.1716
13494WAT     H154682   6.664   2.133   5.454  2.0569 -0.9334  0.1120
13494WAT     H254683   6.760   2.122   5.357  2.4635  2.6586 -0.0071
13494WAT    EPW54684   6.693   2.152   5.384 -0.0791  0.5492  0.3434
13495WAT      O54685   1.323   1.044   3.642 -0.4443  0.0857  0.5273
13495WAT     H154686   1.278   0.969   3.651  1.3275 -1.1082  0.0190
13495WAT     H254687   1.302   1.071   3.562 -0.2686 -0.4755  0.2836
13495WAT    EPW54688   1.313   1.037   3.632 -0.2647  0.3350  0.3876
13496WAT      O54689   1.259   3.047   4.756  0.0628  0.2148  0.1633
13496WAT     H154690   1.317   3.070   4.695  0.0217  0.8540  0.3622
13496WAT     H254691   1.211   2.986   4.717  1.2243 -0.7520  0.1711
13496WAT    EPW54692   1.261   3.041   4.741  0.2445  0.2091 -0.2579
13497WAT      O54693   3.483   3.542   3.137  0.0647 -0.2710 -0.0082
13497WAT     H154694   3.542   3.559   3.200 -0.2758 -1.8740  0.8135
13497WAT     H254695   3.533   3.518   3.069  0.4199  1.0268 -0.2395
13497WAT    EPW54696   3.499   3.541   3.136 -0.6838  0.1651  1.1602
13498WAT      O54697   6.743   0.060   1.799 -0.0803 -0.0630 -0.6969
13498WAT     H154698   6.718   0.144   1.803 -1.0117 -0.3752  0.4794
13498WAT     H254699   6.830   0.064   1.805 -0.1996  0.7439  1.0234
13498WAT    EPW54700   6.752   0.073   1.800 -0.2121  0.1194 -0.1653
13499WAT      O54701   6.943   4.898   0.695  0.2871 -0.1185  0.1252
13499WAT     H154702   6.871   4.894   0.745  0.0966  2.0967  0.1387
13499WAT     H254703   7.008   4.884   0.751 -0.0740 -2.5255  0.0505
13499WAT    EPW54704   6.942   4.896   0.711 -0.3869  0.2872 -0.0838
13500WAT      O54705   4.630   6.370   7.137 -0.1782  0.0552 -0.0942
13500WAT     H154706   4.574   6.375   7.204  1.4661  0.5164  1.3040
13500WAT     H254707   4.599   6.428   7.080 -1.1898  0.2051  0.5782
13500WAT    EPW54708   4.617   6.379   7.139 -0.4366 -0.0371 -0.4748
13501WAT      O54709   0.722   6.394   1.721 -0.3652 -0.2629 -0.4689
13501WAT     H154710   0.689   6.379   1.641  0.3959  1.6118 -1.1827
13501WAT     H254711   0.661   6.361   1.774 -1.7028 -0.0525 -1.8046
13501WAT    EPW54712   0.708   6.387   1.717 -0.6088  0.7366  0.2191
13502WAT      O54713   1.771   2.636   2.464 -0.5286 -0.1172  0.4727
13502WAT     H154714   1.800   2.611   2.542  3.9012 -0.4869 -1.0271
13502WAT     H254715   1.754   2.561   2.423 -1.6624  0.0400  0.6152
13502WAT    EPW54716   1.773   2.621   2.470  0.1255 -0.4117  0.0983
13503WAT      O54717   7.561   1.647   1.107  0.7106 -0.3951 -0.3351
13503WAT     H154718   7.514   1.685   1.169  1.7312 -0.5131  0.5463
13503WAT     H254719   7.554   1.701   1.039  0.9605  0.6444  0.4357
13503WAT    EPW54720   7.553   1.661   1.106  0.0995 -0.1666 -0.2239
13504WAT      O54721   4.323   5.568   1.881 -0.1152  0.6641  0.3613
13504WAT     H154722   4.360   5.572   1.802 -0.0600 -1.9250  0.1500
13504WAT     H254723   4.382   5.524   1.928 -0.7619  0.9256  1.4367
13504WAT    EPW54724   4.337   5.562   1.876  0.1850  0.5198  0.5752
13505WAT      O54725   5.337   2.426   0.006 -0.0511 -0.5240  0.2187
13505WAT     H154726   5.324   2.346   0.036 -1.1629 -0.8116 -0.9741
13505WAT     H254727   5.424   2.434   0.004  0.0522 -1.3680  1.1648
13505WAT    EPW54728   5.348   2.416   0.010  0.7258 -0.1567 -0.2876
13506WAT      O54729   2.638   6.713   6.815  0.1191 -0.0252  0.4031
13506WAT     H154730   2.554   6.735   6.812 -0.1736 -1.1208 -0.4868
13506WAT     H254731   2.678   6.778   6.772 -0.1900  0.7890  1.3285
13506WAT    EPW54732   2.632   6.726   6.808 -0.6741  0.4703  0.8027
13507WAT      O54733   3.275   6.519   5.985 -0.1573  0.4270 -0.1651
13507WAT     H154734   3.233   6.443   5.994 -1.4537  0.8479 -2.0730
13507WAT     H254735   3.254   6.563   6.057  0.5695 -0.9688  0.9466
13507WAT    EPW54736   3.266   6.514   5.997  0.2955 -0.2141 -0.1669
13508WAT      O54737   7.549   7.003   6.967 -0.5815 -0.3936  0.0592
13508WAT     H154738   7.573   6.923   6.943  0.7974  0.1801 -0.5517
13508WAT     H254739   7.522   7.040   6.893 -1.5146 -0.3636  0.3928
13508WAT    EPW54740   7.548   6.997   6.953 -0.0658  0.1589  0.7586
13509WAT      O54741   3.874   4.779   0.284 -0.1256  0.1705 -0.2214
13509WAT     H154742   3.829   4.704   0.294  1.6466 -0.7754  1.3502
13509WAT     H254743   3.876   4.812   0.365 -0.7827  1.9152 -0.8740
13509WAT    EPW54744   3.867   4.773   0.297 -0.0532  0.5247 -0.2275
13510WAT      O54745   7.254   4.074   5.526 -0.0723  0.1978 -0.1671
13510WAT     H154746   7.290   4.087   5.448 -2.5866 -0.2773 -1.4885
13510WAT     H254747   7.230   3.990   5.525 -1.0682  0.4421  0.6862
13510WAT    EPW54748   7.256   4.063   5.514  0.0225  0.2640 -0.7222
13511WAT      O54749   4.261   1.900   7.026  0.0621  0.0833  0.6017
13511WAT     H154750   4.249   1.820   7.058 -0.0195 -0.2391 -0.1999
13511WAT     H254751   4.347   1.911   7.033  0.1932 -0.4204 -0.0345
13511WAT    EPW54752   4.272   1.889   7.031  0.0071 -0.0150 -0.3284
13512WAT      O54753   1.788   1.474   4.982 -0.6473 -0.4976 -0.5238
13512WAT     H154754   1.818   1.468   4.900 -1.0732  1.9830 -0.9444
13512WAT     H254755   1.722   1.418   4.983 -0.3340 -0.9336 -1.7217
13512WAT    EPW54756   1.783   1.465   4.970 -1.0378  0.4715 -0.9354
13513WAT      O54757   7.123   3.859   4.996  0.4905  0.5412  0.5955
13513WAT     H154758   7.060   3.912   5.025 -0.0415  0.5956 -0.6033
13513WAT     H254759   7.189   3.914   4.979  0.4323  0.6424  0.6919
13513WAT    EPW54760   7.123   3.875   4.997 -0.4783 -0.3246  0.0308
13514WAT      O54761   3.671   1.939   1.601  0.0962  0.0979 -0.5628
13514WAT     H154762   3.697   1.891   1.669  0.3456  0.3430 -0.4814
13514WAT     H254763   3.587   1.954   1.616  0.3346  0.8405  0.1191
13514WAT    EPW54764   3.662   1.934   1.613 -0.4457 -0.3862 -0.3185
13515WAT      O54765   6.011   4.233   6.220 -0.1395  0.2258  0.2806
13515WAT     H154766   6.053   4.183   6.278  1.0761  1.5036  0.5525
13515WAT     H254767   6.053   4.309   6.224 -1.1807  0.9108 -0.9844
13515WAT    EPW54768   6.023   4.236   6.229 -0.3251  0.2838  0.3097
13516WAT      O54769   0.950   2.789   6.536 -0.0261  0.2620  0.3008
13516WAT     H154770   0.899   2.860   6.537  0.2068  0.4304  0.2589
13516WAT     H254771   0.909   2.735   6.482 -0.1173  0.4317  0.2011
13516WAT    EPW54772   0.937   2.791   6.528 -0.0770 -0.7168  0.5280
13517WAT      O54773   2.824   0.791   7.034  0.6818 -0.7851  0.3915
13517WAT     H154774   2.869   0.845   7.087  0.6975 -0.7792  0.3721
13517WAT     H254775   2.877   0.722   7.027  0.9535 -0.5241 -0.1199
13517WAT    EPW54776   2.839   0.789   7.041  0.0794  0.2732  0.0489
13518WAT      O54777   4.614   0.231   2.076  0.1938 -0.2650 -0.1087
13518WAT     H154778   4.613   0.314   2.048  1.7676 -0.1892 -0.0119
13518WAT     H254779   4.623   0.185   2.002 -1.7733 -0.4640 -0.2848
13518WAT    EPW54780   4.615   0.237   2.061  0.1531  0.1021  0.1276
13519WAT      O54781   5.391   0.097   0.748 -0.1340  0.7749  0.1191
13519WAT     H154782   5.407   0.147   0.679  0.6391 -0.3733 -0.5717
13519WAT     H254783   5.311   0.121   0.773 -0.2645  1.4867 -0.9301
13519WAT    EPW54784   5.382   0.108   0.742 -0.7303  0.3417  0.6054
13520WAT      O54785   0.975   7.232   5.852 -0.0878 -0.0406  0.3900
13520WAT     H154786   1.019   7.294   5.810 -0.0237  1.1471  2.0970
13520WAT     H254787   1.009   7.158   5.821  0.2844  0.7806 -1.2326
13520WAT    EPW54788   0.987   7.230   5.841  0.4702 -0.7952  0.0326
13521WAT      O54789  -0.001   4.659   2.360  0.2154 -0.3394  0.0258
13521WAT     H154790  -0.019   4.730   2.408 -0.2346 -0.3656 -0.0907
13521WAT     H254791   0.064   4.686   2.308  0.1793 -0.0689  0.1155
13521WAT    EPW54792   0.006   4.674   2.359  0.4638 -0.6421 -0.2971
13522WAT      O54793   1.001   3.902   6.685 -0.3846 -0.1824 -0.7211
13522WAT     H154794   0.997   3.908   6.598 -0.4678 -2.4946 -0.9387
13522WAT     H254795   1.086   3.895   6.702 -0.4421 -1.6640 -0.8555
13522WAT    EPW54796   1.013   3.902   6.675  0.0121 -0.0175  0.4621
13523WAT      O54797   1.987   3.046   0.934 -0.0005 -0.4814 -0.2942
13523WAT     H154798   1.909   3.008   0.925  0.5435 -1.8635  0.5465
13523WAT     H254799   1.990   3.067   1.018 -0.1483  1.2139 -0.6679
13523WAT    EPW54800   1.976   3.044   0.945  0.9603  0.8538  0.4981
13524WAT      O54801   3.283   0.076   6.574 -0.1419 -0.4999 -0.5626
13524WAT     H154802   3.201   0.105   6.562  0.0528  0.0679 -0.5174
13524WAT     H254803   3.274  -0.011   6.569 -1.2190 -0.6578  2.1101
13524WAT    EPW54804   3.269   0.067   6.572  0.2702 -0.3907  0.0001
13525WAT      O54805   1.096   3.462   6.940 -0.2867 -0.5805 -0.0497
13525WAT     H154806   1.079   3.540   6.905 -0.7332 -0.7975 -0.3188
13525WAT     H254807   1.048   3.407   6.892 -0.9150 -0.8844  0.9025
13525WAT    EPW54808   1.086   3.466   6.927 -0.1241 -0.4211 -0.2100
13526WAT      O54809   5.820   0.146   6.600  0.0175  0.2754 -0.5825
13526WAT     H154810   5.768   0.143   6.531  0.5392 -1.9399 -0.9529
13526WAT     H254811   5.765   0.146   6.668 -0.4806  1.9899 -0.9313
13526WAT    EPW54812   5.805   0.146   6.600  0.2536 -0.0698  0.0227
13527WAT      O54813   5.594   7.424   2.755  0.1920 -0.0541 -0.3013
13527WAT     H154814   5.553   7.424   2.832 -1.0337  0.9698 -0.9185
13527WAT     H254815   5.603   7.339   2.737 -1.0670 -0.3144  0.1890
13527WAT    EPW54816   5.589   7.411   2.764 -0.5087 -0.1038  0.1614
13528WAT      O54817   4.562   4.997   2.999 -0.0054  0.0872 -0.1572
13528WAT     H154818   4.588   4.947   3.066  1.6967  1.4291  0.2706
13528WAT     H254819   4.555   5.076   3.034 -1.0959  0.4499 -1.1455
13528WAT    EPW54820   4.565   5.001   3.014  0.1507  0.2724  0.0505
13529WAT      O54821   2.733   7.260   4.427 -0.5180 -0.5749  0.0695
13529WAT     H154822   2.779   7.318   4.382 -1.2025  0.2747  0.4412
13529WAT     H254823   2.777   7.185   4.415 -0.3624 -0.2625 -1.5081
13529WAT    EPW54824   2.746   7.257   4.419  0.3170 -0.3357  0.1680
13530WAT      O54825   7.123   4.050   2.732 -0.1262 -0.3251 -0.3237
13530WAT     H154826   7.058   4.029   2.786 -0.5654 -1.2354 -1.1741
13530WAT     H254827   7.082   4.078   2.660  0.4476  1.3985 -0.0325
13530WAT    EPW54828   7.108   4.051   2.729 -0.5053  0.2304  0.9227
13531WAT      O54829   2.084   0.734   0.056 -0.2260 -0.2276 -0.1375
13531WAT     H154830   2.148   0.754   0.113 -0.6345  0.0586  0.2313
13531WAT     H254831   2.123   0.682  -0.001  0.6514  0.9174 -0.6186
13531WAT    EPW54832   2.099   0.729   0.056  0.7458  0.2366 -0.0947
13532WAT      O54833   5.694   5.123   1.101 -0.2171 -0.0144  0.7692
13532WAT     H154834   5.636   5.100   1.162 -1.7340 -1.3194 -1.0679
13532WAT     H254835   5.646   5.159   1.038  0.9459 -1.0007 -0.7607
13532WAT    EPW54836   5.678   5.125   1.101  0.3193 -0.3482  0.7706
13533WAT      O54837   1.510   2.920   6.491 -0.0674  0.5160 -0.2101
13533WAT     H154838   1.510   2.981   6.428 -0.9770 -0.6825 -1.4113
13533WAT     H254839   1.594   2.896   6.496 -0.0844  0.1145 -1.5041
13533WAT    EPW54840   1.523   2.926   6.482  0.3045 -0.0134  0.2671
13534WAT      O54841   4.810   4.151   5.754  0.6295  0.3219  0.0121
13534WAT     H154842   4.797   4.191   5.830 -0.3535  0.2692 -0.1111
13534WAT     H254843   4.729   4.142   5.722  0.8560 -1.3717 -0.1549
13534WAT    EPW54844   4.796   4.156   5.760  0.2264 -0.3402 -0.1865
13535WAT      O54845   7.124   2.481   1.818  0.6632  0.0429 -0.6898
13535WAT     H154846   7.068   2.431   1.862  1.2081 -0.6681 -0.7869
13535WAT     H254847   7.123   2.557   1.861  0.7257 -0.4389  0.1602
13535WAT    EPW54848   7.115   2.485   1.831  0.3896 -0.5041 -0.2300
13536WAT      O54849   1.096   5.976   2.820 -0.0722  0.0619 -0.0606
13536WAT     H154850   1.023   5.932   2.838 -1.4067  1.6589 -1.1941
13536WAT     H254851   1.121   6.008   2.898  0.0291 -1.3186  0.4980
13536WAT    EPW54852   1.089   5.974   2.835 -0.7419 -0.0745  0.6223
13537WAT      O54853   2.358   6.459   2.654 -0.3912 -0.0019 -0.0134
13537WAT     H154854   2.383   6.443   2.737 -0.7638  1.1937  0.3499
13537WAT     H254855   2.330   6.381   2.626 -0.0906 -0.4684  0.9203
13537WAT    EPW54856   2.358   6.445   2.662 -0.1515 -0.3066 -0.5816
13538WAT      O54857   6.073   3.082   4.491  0.2940 -0.8332 -0.2817
13538WAT     H154858   6.024   3.141   4.533  0.1922 -1.1273  0.0167
13538WAT     H254859   6.050   3.091   4.408  1.1734  0.4182 -0.4227
13538WAT    EPW54860   6.063   3.092   4.485  0.3657 -0.0830 -0.7222
13539WAT      O54861   1.151   6.652   5.428  0.3925  0.5296  0.2616
13539WAT     H154862   1.174   6.730   5.460 -0.9416  0.9356  0.2557
13539WAT     H254863   1.222   6.603   5.443  1.7339  2.0263 -0.8276
13539WAT    EPW54864   1.165   6.656   5.435  0.4538  0.1911  0.1278
13540WAT      O54865   3.450   0.970   0.606  0.9836 -0.3368  0.4334
13540WAT     H154866   3.379   0.966   0.658 -1.3501 -0.6257 -2.5094
13540WAT     H254867   3.491   1.042   0.633 -1.0889  0.5177  1.5356
13540WAT    EPW54868   3.445   0.980   0.618  0.3313  0.3651 -0.1542
13541WAT      O54869   4.433   2.292   0.940  0.4202 -0.2135 -0.1630
13541WAT     H154870   4.478   2.349   0.892  1.9674 -0.6560  0.6899
13541WAT     H254871   4.469   2.299   1.019 -0.9452 -0.6842  0.5225
13541WAT    EPW54872   4.445   2.301   0.944  0.2519 -0.3310 -0.0791
13542WAT      O54873   0.459   1.702   5.552  0.1620 -0.3275 -0.1012
13542WAT     H154874   0.392   1.650   5.531 -0.1677  0.6180 -1.5099
13542WAT     H254875   0.429   1.745   5.622  1.2339 -3.4355  2.5021
13542WAT    EPW54876   0.445   1.700   5.559 -0.0160  0.2349 -0.0589
13543WAT      O54877   0.189   2.659   4.356 -0.7857  0.1598  0.0701
13543WAT     H154878   0.188   2.572   4.350  1.9702  0.0631 -0.5315
13543WAT     H254879   0.257   2.682   4.307 -1.5048  2.6921  0.1112
13543WAT    EPW54880   0.199   2.649   4.348 -0.5919  0.4716  0.4634
13544WAT      O54881   1.484   2.709   4.760 -0.0468 -0.2507 -0.2653
13544WAT     H154882   1.453   2.767   4.816 -0.3536  0.0450 -0.7362
13544WAT     H254883   1.426   2.643   4.765  0.6943 -0.8614  0.8156
13544WAT    EPW54884   1.471   2.708   4.769  0.4080 -0.1737  0.3055
13545WAT      O54885   4.035   5.782   2.180 -0.2372  0.2539  0.4427
13545WAT     H154886   4.030   5.840   2.245 -0.7092  0.0775  0.5651
13545WAT     H254887   4.090   5.820   2.123 -1.3095  1.2767  0.0557
13545WAT    EPW54888   4.043   5.796   2.181 -0.0449 -0.2946  0.5138
13546WAT      O54889   3.826   3.658   6.040  0.5485  0.6531  0.0154
13546WAT     H154890   3.902   3.689   6.069  0.4911  1.3558 -0.5552
13546WAT     H254891   3.783   3.730   6.014 -0.1089  0.2154 -0.1312
13546WAT    EPW54892   3.831   3.673   6.041  0.1348  0.2330  0.3704
13547WAT      O54893   0.351   5.815   7.364 -0.9530 -0.2899  0.5197
13547WAT     H154894   0.414   5.761   7.337 -0.9569 -0.0673  0.0443
13547WAT     H254895   0.280   5.764   7.367 -0.9730 -0.2980 -0.0005
13547WAT    EPW54896   0.350   5.799   7.360 -0.3005  0.0515 -0.1370
13548WAT      O54897   0.432   6.610   1.695  0.1713  0.0905  0.1464
13548WAT     H154898   0.480   6.643   1.759 -0.5318  0.6983  0.3824
13548WAT     H254899   0.356   6.592   1.734 -0.0859 -0.0174 -0.3974
13548WAT    EPW54900   0.428   6.613   1.710 -0.1867 -0.2032 -1.0010
13549WAT      O54901   2.012   4.499   7.205  0.2374 -0.3122 -0.2289
13549WAT     H154902   2.093   4.531   7.213  0.1036 -0.0675  0.1876
13549WAT     H254903   1.967   4.542   7.267  0.1567 -1.6579  0.6806
13549WAT    EPW54904   2.017   4.510   7.215  0.3315  0.2416  0.2002
13550WAT      O54905   3.597   7.275   1.250 -0.0175 -0.3926 -0.1676
13550WAT     H154906   3.637   7.288   1.173  0.9522 -1.2451  0.1649
13550WAT     H254907   3.521   7.238   1.228  0.5278 -1.2367 -0.7152
13550WAT    EPW54908   3.592   7.271   1.235 -0.0092  0.0284 -0.1633
13551WAT      O54909   5.378   4.361   4.709  0.2190 -0.0163  0.1337
13551WAT     H154910   5.322   4.310   4.753 -0.0117  0.1318  0.0138
13551WAT     H254911   5.359   4.441   4.736  0.6028  0.0057  0.3410
13551WAT    EPW54912   5.367   4.365   4.720  0.3592 -0.5708 -0.1058
13552WAT      O54913   4.566   4.142   5.593  0.0761  0.3337  0.1261
13552WAT     H154914   4.482   4.144   5.614 -0.6211 -0.3887 -2.2451
13552WAT     H254915   4.567   4.164   5.508  1.8150 -3.0160 -0.8981
13552WAT    EPW54916   4.554   4.146   5.583  0.5419  0.7451  0.0916
13553WAT      O54917   6.901   0.105   2.333 -0.0654  0.0994  0.0043
13553WAT     H154918   6.816   0.125   2.324 -0.6909 -1.3648  1.9226
13553WAT     H254919   6.929   0.164   2.392 -0.3656 -0.7820  1.0652
13553WAT    EPW54920   6.893   0.117   2.341 -0.2703  0.0732 -0.0289
13554WAT      O54921   1.630   1.581   2.728  0.1906  0.5220  0.1911
13554WAT     H154922   1.699   1.616   2.768 -0.6722  2.3932  0.1334
13554WAT     H254923   1.562   1.620   2.766 -0.8128 -0.5217 -0.4515
13554WAT    EPW54924   1.630   1.592   2.739  0.4596  0.1473  0.5753
13555WAT      O54925   5.267   2.776   2.476 -0.8100  0.5897  0.1153
13555WAT     H154926   5.190   2.789   2.515 -1.8713  1.8678 -2.1931
13555WAT     H254927   5.261   2.694   2.447 -0.2855 -0.1320  1.9025
13555WAT    EPW54928   5.254   2.766   2.477  0.2912 -0.2505  0.0234
13556WAT      O54929   6.288   7.322   6.493  0.3103  0.2387  0.2592
13556WAT     H154930   6.281   7.372   6.564  1.4529  1.9675 -0.7604
13556WAT     H254931   6.223   7.349   6.442 -1.4137 -2.0032  1.1482
13556WAT    EPW54932   6.278   7.334   6.496 -0.0793  0.5915  0.6702
13557WAT      O54933   3.130   4.822   2.194 -0.7481  0.1169 -0.3959
13557WAT     H154934   3.163   4.780   2.264  0.2572  0.0265 -0.9096
13557WAT     H254935   3.127   4.905   2.220 -0.7277  0.0310 -0.1138
13557WAT    EPW54936   3.134   4.828   2.208 -0.3056 -0.0478 -0.0356
13558WAT      O54937   6.175   0.148   5.338  0.1264  0.4919 -0.3077
13558WAT     H154938   6.185   0.218   5.287 -0.6825 -0.1880 -1.4442
13558WAT     H254939   6.253   0.110   5.338  0.1440  0.5264 -1.0155
13558WAT    EPW54940   6.188   0.153   5.331 -0.2991  0.0533 -0.7401
13559WAT      O54941   1.187   1.256   3.040 -0.0516  0.0157 -0.4344
13559WAT     H154942   1.231   1.181   3.046  0.6703  0.4296 -0.3246
13559WAT     H254943   1.202   1.282   2.958  0.4509  0.4637 -0.2126
13559WAT    EPW54944   1.196   1.249   3.029 -0.0505 -0.2610  0.2737
13560WAT      O54945   5.625   7.457   1.311 -0.2089 -0.6395 -0.5685
13560WAT     H154946   5.687   7.518   1.298 -0.4225 -0.3888 -0.4010
13560WAT     H254947   5.554   7.503   1.330 -0.6550 -0.8911 -1.5384
13560WAT    EPW54948   5.624   7.473   1.312  0.1573  0.3269  0.1558
13561WAT      O54949   3.558   0.600   2.569  0.2715  0.3672 -0.4412
13561WAT     H154950   3.636   0.564   2.587 -0.3777 -0.5021  0.8292
13561WAT     H254951   3.541   0.573   2.487  0.9718 -0.0631 -0.4534
13561WAT    EPW54952   3.567   0.590   2.559 -0.3671 -0.3896  0.3945
13562WAT      O54953   5.021   6.569   6.035 -0.0219  0.5830  0.0683
13562WAT     H154954   5.016   6.651   6.004  1.9661  1.6920  2.3681
13562WAT     H254955   5.096   6.568   6.078  0.1770 -2.6275 -0.1535
13562WAT    EPW54956   5.031   6.581   6.037 -0.4126 -0.0829 -0.0475
13563WAT      O54957   7.116   2.964   3.671 -0.2872  0.1225  0.2408
13563WAT     H154958   7.184   2.923   3.635 -0.9693  0.2440 -1.2476
13563WAT     H254959   7.134   2.962   3.756  1.5039  0.0410 -0.1085
13563WAT    EPW54960   7.128   2.958   3.678  0.1119 -0.0829  0.3290
13564WAT      O54961   0.947   0.920   3.008  0.1223  0.1996  0.1215
13564WAT     H154962   0.994   0.946   3.077  1.0502  2.2205 -1.1780
13564WAT     H254963   0.878   0.974   3.009  0.5294  0.7726 -0.9142
13564WAT    EPW54964   0.944   0.932   3.018  0.1555 -0.1575 -0.1961
13565WAT      O54965   2.365   7.468   5.130 -0.2453  0.5510  0.1354
13565WAT     H154966   2.425   7.429   5.080 -1.1673 -0.6656 -0.0635
13565WAT     H254967   2.405   7.475   5.208  0.0610 -0.5474  0.1010
13565WAT    EPW54968   2.380   7.463   5.134  0.0969 -0.5759  0.9577
13566WAT      O54969   7.478   6.724   1.129 -0.1201  0.4059 -0.3274
13566WAT     H154970   7.456   6.678   1.058  0.1090  1.8004 -1.3451
13566WAT     H254971   7.526   6.667   1.175  0.3896 -0.3165 -1.6653
13566WAT    EPW54972   7.482   6.708   1.125 -0.0250  0.0053 -0.3182
13567WAT      O54973   5.365   5.155   5.587  0.0229  0.0839  0.5152
13567WAT     H154974   5.290   5.133   5.624  0.2505  1.2836  1.7679
13567WAT     H254975   5.363   5.243   5.588  0.7719  0.1486 -0.8375
13567WAT    EPW54976   5.354   5.165   5.592 -0.7527 -0.9657  0.1662
13568WAT      O54977   7.164   0.537   2.442 -0.0835 -0.1347  0.4890
13568WAT     H154978   7.201   0.579   2.509  0.3656 -1.0284  0.8169
13568WAT     H254979   7.102   0.592   2.415  0.6363  0.8374  0.7525
13568WAT    EPW54980   7.160   0.551   2.448 -0.4779  0.1136 -0.4460
13569WAT      O54981   2.740   7.340   0.466  0.0146 -0.1231 -0.4434
13569WAT     H154982   2.804   7.346   0.407  0.1602 -2.8818 -0.6963
13569WAT     H254983   2.707   7.261   0.452 -1.0707 -0.2106  2.0784
13569WAT    EPW54984   2.745   7.329   0.455  0.3359  0.0196  0.3344
13570WAT      O54985   5.357   4.209   3.999  0.3691 -0.5381  0.1557
13570WAT     H154986   5.340   4.180   3.919 -0.3907 -0.4751  0.2804
13570WAT     H254987   5.393   4.287   3.985 -0.1017 -0.3667 -0.1201
13570WAT    EPW54988   5.360   4.216   3.985 -0.5836  0.5254 -0.3243
13571WAT      O54989   2.342   3.195   4.702  0.1957  0.1180 -0.0635
13571WAT     H154990   2.370   3.276   4.718 -1.2980  0.6915 -0.1764
13571WAT     H254991   2.289   3.177   4.769  1.7561 -1.4585  0.8531
13571WAT    EPW54992   2.338   3.204   4.714 -0.3039 -0.0278  0.3927
13572WAT      O54993   3.840   3.119   6.405 -0.1125  0.3424 -0.2780
13572WAT     H154994   3.830   3.145   6.322  0.6120 -0.5548 -0.6545
13572WAT     H254995   3.782   3.169   6.448 -1.4770 -0.1171 -1.4824
13572WAT    EPW54996   3.830   3.130   6.399  0.1343 -0.3515 -0.2575
13573WAT      O54997   1.214   1.586   4.959  0.0516 -0.8533 -0.0624
13573WAT     H154998   1.175   1.546   4.892  1.0698 -1.4320 -0.3421
13573WAT     H254999   1.290   1.613   4.926 -0.2432  0.5486  0.3736
13573WAT    EPW55000   1.220   1.584   4.944 -0.2452 -0.5069 -0.6991
13574WAT      O55001   4.575   6.017   1.315  0.1944  0.2924  0.0991
13574WAT     H155002   4.659   6.021   1.340  0.6537 -0.0770 -1.2825
13574WAT     H255003   4.580   6.014   1.228 -1.3668  2.7454 -0.1511
13574WAT    EPW55004   4.588   6.017   1.306  0.3211  0.1926 -0.1739
13575WAT      O55005   7.555   5.399   0.859  0.3110 -0.4385 -0.4348
13575WAT     H155006   7.574   5.313   0.862 -0.3153 -0.5554  0.6056
13575WAT     H255007   7.489   5.407   0.915  0.4163  0.7464 -0.4659
13575WAT    EPW55008   7.548   5.387   0.868 -0.3946  0.1753  0.2700
13576WAT      O55009   6.432   1.651   0.199 -0.5857  0.4510 -0.1025
13576WAT     H155010   6.478   1.649   0.273 -0.9147  0.2107  0.0988
13576WAT     H255011   6.389   1.575   0.199  2.9685 -1.8825 -2.8734
13576WAT    EPW55012   6.432   1.640   0.210  0.2253 -0.0098 -0.8619
13577WAT      O55013   7.522   3.243   5.255  0.6956  0.3939  0.4858
13577WAT     H155014   7.578   3.308   5.240  0.1552  1.0683  1.2662
13577WAT     H255015   7.499   3.217   5.175  0.0065  1.9953  0.1092
13577WAT    EPW55016   7.527   3.249   5.241  0.1626 -0.0437  0.5006
13578WAT      O55017   7.638   1.493   2.901  0.5599  0.2290  0.1304
13578WAT     H155018   7.590   1.565   2.915 -0.1912  0.2181 -1.9804
13578WAT     H255019   7.590   1.430   2.936  0.4047  0.5409  0.4964
13578WAT    EPW55020   7.624   1.495   2.908 -0.4412  0.2336  0.0006
13579WAT      O55021   0.026   1.190   2.520  0.5531  0.0612 -0.2284
13579WAT     H155022   0.085   1.167   2.459  0.2404 -0.8107 -0.2122
13579WAT     H255023   0.073   1.235   2.578  1.2126 -0.5913 -0.2371
13579WAT    EPW55024   0.042   1.193   2.519 -1.0434 -0.0534  0.2277
13580WAT      O55025   1.754   1.720   0.632 -0.5641 -0.1382 -0.3464
13580WAT     H155026   1.748   1.655   0.575 -1.4149 -1.0879  0.7685
13580WAT     H255027   1.762   1.679   0.709 -1.4477  1.0444  0.4150
13580WAT    EPW55028   1.754   1.704   0.635 -0.4569  0.5159  0.3606
13581WAT      O55029   1.617   5.473   6.578 -0.0403 -0.0399 -0.2531
13581WAT     H155030   1.663   5.414   6.533  0.0337  0.0757 -0.3299
13581WAT     H255031   1.534   5.448   6.565 -0.0673  0.4535 -1.1189
13581WAT    EPW55032   1.612   5.460   6.570 -0.1032 -0.3776 -0.0192
13582WAT      O55033   4.036   2.067   5.888  0.2299 -0.1779 -0.1973
13582WAT     H155034   4.077   2.137   5.922  0.4127  0.5134 -1.7501
13582WAT     H255035   3.966   2.057   5.939  1.0539  0.1321  1.0273
13582WAT    EPW55036   4.032   2.076   5.901  0.2853  0.3962  0.6531
13583WAT      O55037   2.490   2.563   4.259 -0.5278  0.1928 -0.0344
13583WAT     H155038   2.468   2.614   4.326 -2.2485 -0.1458 -0.2845
13583WAT     H255039   2.530   2.618   4.204 -0.7405  0.8771  0.4782
13583WAT    EPW55040   2.493   2.579   4.261  0.4514  0.4573 -0.0623
13584WAT      O55041   0.788   1.525   1.358  0.2915 -0.2720  0.3187
13584WAT     H155042   0.823   1.517   1.278  0.9686 -0.9461  0.6743
13584WAT     H255043   0.855   1.512   1.412 -0.0688  0.6452  1.0080
13584WAT    EPW55044   0.803   1.522   1.354 -0.5395 -0.2814  0.2004
13585WAT      O55045   5.789   3.530   0.870 -0.1406  0.2448 -0.0989
13585WAT     H155046   5.864   3.487   0.864 -0.2355  0.3174 -3.0126
13585WAT     H255047   5.793   3.588   0.806 -2.8220 -0.0080 -0.6110
13585WAT    EPW55048   5.801   3.532   0.860 -0.3244  0.0921 -0.4501
13586WAT      O55049   2.685   6.651   3.164 -0.2016 -0.0587  0.2983
13586WAT     H155050   2.719   6.731   3.159 -1.8849  0.6303 -1.3117
13586WAT     H255051   2.720   6.610   3.095  0.4467 -0.6555  0.9653
13586WAT    EPW55052   2.695   6.657   3.153  0.0843  0.0673 -0.3259
13587WAT      O55053   2.406   5.109   5.248 -0.0792 -0.4210 -0.4436
13587WAT     H155054   2.439   5.147   5.177 -0.0492  1.4167  0.4853
13587WAT     H255055   2.468   5.053   5.272  0.0701 -0.7958 -1.6370
13587WAT    EPW55056   2.420   5.106   5.241 -0.1846  0.0157  0.5612
13588WAT      O55057   2.259   2.035   3.931  0.0116  0.0045 -0.0673
13588WAT     H155058   2.332   2.020   3.885  0.3271  1.9714 -0.3100
13588WAT     H255059   2.279   2.005   4.011  1.8730  2.1624  0.3836
13588WAT    EPW55060   2.273   2.029   3.936  0.7696 -0.6668  0.5698
13589WAT      O55061   6.340   4.818   5.776 -0.0363 -0.4075 -0.3950
13589WAT     H155062   6.374   4.896   5.794 -0.7705 -0.3541  0.8655
13589WAT     H255063   6.386   4.764   5.826  1.1484 -0.9671 -1.9925
13589WAT    EPW55064   6.352   4.822   5.786  0.4325  0.0656 -0.4882
13590WAT      O55065   5.370   1.467   3.864 -0.1817  0.0449 -0.3105
13590WAT     H155066   5.447   1.479   3.825 -1.2892  1.9520 -2.0652
13590WAT     H255067   5.381   1.501   3.944  0.8562  0.0368 -0.4445
13590WAT    EPW55068   5.383   1.473   3.870 -0.1382 -0.3775  0.0887
13591WAT      O55069   1.937   6.415   2.667  0.4171  0.0449 -0.1161
13591WAT     H155070   1.909   6.370   2.597  0.0570 -0.8990  0.6084
13591WAT     H255071   1.864   6.433   2.711  0.7559 -0.8853  0.8819
13591WAT    EPW55072   1.922   6.411   2.663 -0.1891 -0.7728  0.0659
13592WAT      O55073   3.612   7.557   7.520 -0.7081  0.5797 -0.3699
13592WAT     H155074   3.686   7.590   7.487  0.4840 -1.2845  0.2376
13592WAT     H255075   3.589   7.497   7.461 -0.7504 -0.0370  0.2542
13592WAT    EPW55076   3.620   7.553   7.507  0.5668  0.0471  0.9514
13593WAT      O55077   1.549   5.784   2.292 -0.3108  0.0017 -0.4149
13593WAT     H155078   1.469   5.763   2.265 -0.0859  0.8245 -1.8387
13593WAT     H255079   1.537   5.855   2.342 -0.5783 -0.6511  0.4762
13593WAT    EPW55080   1.536   5.791   2.296  0.5094 -0.2880  0.1050
13594WAT      O55081   5.628   0.455   3.237 -0.7405  0.0444  0.1276
13594WAT     H155082   5.564   0.406   3.203  0.6038 -1.1443 -0.8266
13594WAT     H255083   5.695   0.400   3.243  0.1195  1.1599  1.4230
13594WAT    EPW55084   5.629   0.440   3.233  0.0110  0.3665  0.2156
13595WAT      O55085   4.026   1.086   3.783  0.4799  0.0100 -0.6852
13595WAT     H155086   4.110   1.110   3.784  0.3335  0.5588 -1.1659
13595WAT     H255087   3.983   1.162   3.781  0.0124 -0.2563 -2.5816
13595WAT    EPW55088   4.032   1.101   3.783  0.1667 -0.2842 -0.2292
13596WAT      O55089   5.125   6.192   4.458 -0.4288  0.4835 -0.2216
13596WAT     H155090   5.110   6.251   4.521 -2.7095  1.8746 -1.9546
13596WAT     H255091   5.067   6.129   4.475 -1.0102  0.8359 -0.8836
13596WAT    EPW55092   5.115   6.191   4.470  0.2119 -0.1942 -0.1811
13597WAT      O55093   2.898   0.279   4.783 -0.0949  0.2449  0.3704
13597WAT     H155094   2.932   0.250   4.858 -0.2890 -0.4921  0.1855
13597WAT     H255095   2.819   0.242   4.781  0.2075 -0.3655 -0.5578
13597WAT    EPW55096   2.892   0.269   4.794  0.0674  0.0221  0.0487
13598WAT      O55097   2.114   2.855   2.563  0.5250  0.3465 -0.3369
13598WAT     H155098   2.140   2.828   2.642 -1.0549 -0.7000 -0.1241
13598WAT     H255099   2.062   2.923   2.582 -0.1102 -0.1047 -0.4380
13598WAT    EPW55100   2.110   2.861   2.578  0.1371 -0.3593 -0.0159
13599WAT      O55101   5.015   1.404   0.369 -0.6743 -0.0199  0.4381
13599WAT     H155102   4.960   1.399   0.302 -0.3022 -1.2514  0.2033
13599WAT     H255103   5.079   1.455   0.340 -1.0369  0.3314  0.2453
13599WAT    EPW55104   5.016   1.411   0.355 -0.1761  0.1366  0.1037
13600WAT      O55105   6.821   6.154   4.022 -0.0335  0.3715  0.0921
13600WAT     H155106   6.858   6.076   4.032  1.8712  1.2194  0.2048
13600WAT     H255107   6.791   6.152   3.940 -0.9330 -0.7996  0.4208
13600WAT    EPW55108   6.822   6.142   4.011 -0.1429 -0.2838 -0.4903
13601WAT      O55109   1.987   5.158   3.676  0.1211 -0.4447  0.1014
13601WAT     H155110   1.934   5.160   3.745 -2.3237 -0.4217 -1.6332
13601WAT     H255111   2.012   5.241   3.667 -2.7588  0.4465 -1.1881
13601WAT    EPW55112   1.983   5.170   3.685  0.3615 -0.2009  0.5455
13602WAT      O55113   3.988   5.597   6.714 -0.3816 -0.0467  0.3271
13602WAT     H155114   4.063   5.587   6.671 -0.1742  1.5114  0.2743
13602WAT     H255115   3.928   5.600   6.651 -0.3286  0.0893  0.2836
13602WAT    EPW55116   3.990   5.596   6.699 -0.1458  0.6592  0.6174
13603WAT      O55117   6.954   3.044   4.247  0.0476 -0.1107 -0.1448
13603WAT     H155118   6.951   3.130   4.257 -1.2922 -0.2550  0.9726
13603WAT     H255119   7.037   3.029   4.225  0.1332  1.5196 -1.0922
13603WAT    EPW55120   6.966   3.054   4.245 -0.2724  0.0880  0.2405
13604WAT      O55121   5.664   7.037   5.488  0.5709  0.3360 -0.0113
13604WAT     H155122   5.724   7.090   5.453  1.0711 -0.5206 -0.5048
13604WAT     H255123   5.697   7.018   5.566  0.9670 -0.1481 -0.2893
13604WAT    EPW55124   5.678   7.042   5.494 -0.0545  0.0985 -0.1639
13605WAT      O55125   3.767   6.291   0.656 -0.1570  0.0914 -0.7913
13605WAT     H155126   3.819   6.239   0.704 -0.5004  0.7491  0.3317
13605WAT     H255127   3.690   6.284   0.696  0.0890  2.5236  0.3116
13605WAT    EPW55128   3.763   6.283   0.669 -0.0148  0.2851 -0.3202
13606WAT      O55129   0.479   0.477   1.282 -0.1603  0.3229  0.7759
13606WAT     H155130   0.497   0.416   1.341  0.7644  1.2333  1.4626
13606WAT     H255131   0.392   0.483   1.283 -0.2179 -0.5853  1.0964
13606WAT    EPW55132   0.469   0.469   1.291  0.0945 -0.5088  0.1531
13607WAT      O55133   0.878   4.839   7.366  0.0459  0.9091 -0.6400
13607WAT     H155134   0.834   4.828   7.441 -1.0382  0.2568 -1.3416
13607WAT     H255135   0.954   4.800   7.381 -0.4450  0.1086 -0.1160
13607WAT    EPW55136   0.883   4.832   7.380  0.5211 -0.2388  0.2016
13608WAT      O55137   7.535   2.108   5.425 -0.2247 -0.0788  0.3185
13608WAT     H155138   7.599   2.061   5.390 -1.5655 -2.2446  0.6128
13608WAT     H255139   7.464   2.082   5.382 -1.4018 -0.2942  2.2768
13608WAT    EPW55140   7.534   2.097   5.414  0.7997 -0.6903  0.5125
13609WAT      O55141   7.350   6.628   2.805 -0.2130 -0.1474  0.6233
13609WAT     H155142   7.350   6.627   2.892  1.2756 -1.6513  0.6449
13609WAT     H255143   7.419   6.580   2.783  1.0609  2.3131 -1.4019
13609WAT    EPW55144   7.360   6.621   2.815  0.0208  0.1412 -0.7519
13610WAT      O55145   1.548   0.398   7.041 -0.1388  0.5935  0.1181
13610WAT     H155146   1.548   0.476   7.081 -2.1855  1.6079 -1.6286
13610WAT     H255147   1.579   0.416   6.962 -0.4980 -0.4099 -0.2648
13610WAT    EPW55148   1.552   0.412   7.035 -0.4951 -0.5044 -0.1235
13611WAT      O55149   5.073   1.075   3.098  0.0258 -0.0049  0.1620
13611WAT     H155150   5.129   1.010   3.082  0.9604  0.6684  0.5985
13611WAT     H255151   5.000   1.050   3.058  1.3949  0.2826 -2.7950
13611WAT    EPW55152   5.070   1.062   3.090  0.1156 -0.3941  0.3546
13612WAT      O55153   0.025   5.110   7.126 -0.3819 -0.0806 -0.2323
13612WAT     H155154   0.013   5.045   7.069 -3.8107 -0.5820  0.8122
13612WAT     H255155  -0.030   5.172   7.099 -0.6925  0.4278  1.4200
13612WAT    EPW55156   0.015   5.109   7.114 -0.0139  0.3733 -0.4816
13613WAT      O55157   3.343   4.033  -0.026  0.2031 -0.1955 -0.5947
13613WAT     H155158   3.287   3.995   0.030 -0.1679  0.9518 -0.1578
13613WAT     H255159   3.363   4.108   0.013  0.7649  0.1541 -1.5264
13613WAT    EPW55160   3.337   4.038  -0.012  0.7037  0.1685  0.6711
13614WAT      O55161   4.558   2.446   4.561 -0.0838 -0.1752  0.1936
13614WAT     H155162   4.625   2.415   4.514  1.0350  0.2223  1.4685
13614WAT     H255163   4.498   2.465   4.500  0.8294 -0.8302 -0.9584
13614WAT    EPW55164   4.559   2.444   4.545  0.3228 -1.1510  0.0123
13615WAT      O55165   2.539   2.696   2.859 -0.1920 -0.3593  0.0825
13615WAT     H155166   2.531   2.727   2.941 -0.2940 -0.5290  0.1361
13615WAT     H255167   2.619   2.663   2.858  0.1085  0.3608 -0.1277
13615WAT    EPW55168   2.549   2.696   2.871 -0.2604  0.6609  0.0507
13616WAT      O55169   0.666   6.116   4.949  0.0499 -0.1492  0.3430
13616WAT     H155170   0.585   6.095   4.924  0.0192  0.0712  0.2634
13616WAT     H255171   0.669   6.086   5.031 -0.0411 -0.3472  0.2766
13616WAT    EPW55172   0.654   6.108   4.957  0.6689  0.2673 -0.4159
13617WAT      O55173   2.813   2.460   2.263  0.4514  0.2428  0.0345
13617WAT     H155174   2.773   2.517   2.210 -0.7362 -0.7696 -0.1887
13617WAT     H255175   2.897   2.471   2.243  0.2102  1.4704 -0.4517
13617WAT    EPW55176   2.819   2.470   2.252  0.2137  0.7073  0.8749
13618WAT      O55177   3.813   0.744   3.806 -0.6511  0.5034  0.0951
13618WAT     H155178   3.791   0.804   3.746  0.0069 -0.7894 -1.4983
13618WAT     H255179   3.745   0.690   3.808 -0.3995  0.1825  0.0470
13618WAT    EPW55180   3.800   0.745   3.797  0.9622  0.6824  0.0479
13619WAT      O55181   4.197   1.763   3.571 -0.3093 -0.2191  0.4607
13619WAT     H155182   4.229   1.819   3.629 -2.2186  1.9388 -0.4044
13619WAT     H255183   4.229   1.791   3.495 -0.9455 -0.5480  0.0564
13619WAT    EPW55184   4.206   1.775   3.568 -0.1956  0.0426  0.7597
13620WAT      O55185   0.068   7.051   5.661 -0.2318  0.5824 -0.1978
13620WAT     H155186   0.034   7.122   5.698  1.8461  1.2413  0.5776
13620WAT     H255187   0.071   6.993   5.726 -0.6215  0.2300 -0.4847
13620WAT    EPW55188   0.063   7.053   5.676 -0.0076  0.4992  0.0373
13621WAT      O55189   6.286   6.237   3.335 -0.9501  0.3224  0.1558
13621WAT     H155190   6.330   6.216   3.408 -1.9090  0.5397  0.8100
13621WAT     H255191   6.251   6.162   3.309  0.1607  0.0441 -0.6483
13621WAT    EPW55192   6.288   6.223   3.342  0.8506 -0.4547 -0.2170
13622WAT      O55193   4.712   3.718   3.951  0.0927 -0.5083  0.1255
13622WAT     H155194   4.750   3.774   4.006  1.0776 -0.6226 -0.4068
13622WAT     H255195   4.636   3.700   3.989 -0.0756  0.8942  0.4855
13622WAT    EPW55196   4.707   3.723   3.965 -0.3906  0.2509  0.0267
13623WAT      O55197   5.913   3.331   2.284 -0.3432  0.5129  0.2518
13623WAT     H155198   5.907   3.261   2.232 -2.1373  1.2890 -0.6755
13623WAT     H255199   5.992   3.364   2.265 -0.1873 -0.2824 -0.5519
13623WAT    EPW55200   5.924   3.326   2.274 -0.1323 -0.6351  0.5030
13624WAT      O55201   3.164   4.463   5.327  0.0984  0.4748 -0.5914
13624WAT     H155202   3.081   4.439   5.329  0.1608  0.2788  0.8079
13624WAT     H255203   3.202   4.404   5.276 -0.3855 -0.2760 -0.0982
13624WAT    EPW55204   3.158   4.451   5.320  0.0200  0.3812  0.5800
13625WAT      O55205   4.004   3.637   2.951 -0.2990 -0.1093 -0.1860
13625WAT     H155206   4.051   3.710   2.942 -0.9413  0.3162 -0.1649
13625WAT     H255207   4.035   3.601   3.025 -0.2568  0.3506  0.0225
13625WAT    EPW55208   4.015   3.642   2.961  0.0961 -0.2334  0.0187
13626WAT      O55209   7.021   2.508   6.712  0.4111 -0.3338 -0.0862
13626WAT     H155210   7.015   2.421   6.714  0.4430 -0.3434 -0.3569
13626WAT     H255211   7.015   2.531   6.796  0.1650 -0.5795 -0.0363
13626WAT    EPW55212   7.019   2.498   6.725  0.0849 -0.1006 -0.1767
13627WAT      O55213   2.247   1.879   6.078  0.0799 -0.9083  0.4470
13627WAT     H155214   2.205   1.803   6.071 -0.0913 -0.8061  0.3594
13627WAT     H255215   2.187   1.938   6.054 -0.4133 -0.5723  2.3113
13627WAT    EPW55216   2.232   1.876   6.074  0.2661  0.4613  0.1036
13628WAT      O55217   4.033   1.839   0.929  0.4226 -0.4308  0.4159
13628WAT     H155218   4.036   1.863   0.845 -0.4444 -0.1566  0.4539
13628WAT     H255219   4.095   1.778   0.936  1.0566  0.1185 -0.2349
13628WAT    EPW55220   4.043   1.834   0.918 -0.0429  1.0035  0.4007
13629WAT      O55221   0.379   3.910   5.940 -0.4132  0.1534  0.2285
13629WAT     H155222   0.399   3.827   5.926  1.3496  0.6954 -0.8453
13629WAT     H255223   0.437   3.935   6.001 -0.7408  0.6456  0.3461
13629WAT    EPW55224   0.391   3.902   5.947  0.4584  0.5587 -0.2681
13630WAT      O55225   5.909   6.581   1.519 -0.0044  0.0264  0.0312
13630WAT     H155226   5.838   6.611   1.559 -2.6248 -2.6884 -2.1452
13630WAT     H255227   5.938   6.519   1.573  2.5345  2.7099  2.1594
13630WAT    EPW55228   5.903   6.576   1.533  0.2348 -0.0699  0.2994
13631WAT      O55229   2.014   4.751   4.462 -0.3096  0.1332 -0.0052
13631WAT     H155230   2.047   4.816   4.414 -0.6136 -0.6569 -1.3535
13631WAT     H255231   2.075   4.688   4.457 -0.6540 -0.2124  0.0662
13631WAT    EPW55232   2.028   4.751   4.454  0.3231 -0.2390 -0.4005
13632WAT      O55233   2.818   2.014   5.669 -0.1193 -0.1936 -0.0156
13632WAT     H155234   2.838   2.023   5.585  1.8360 -0.9619  0.3212
13632WAT     H255235   2.895   1.999   5.707 -0.9832 -0.0934  1.8862
13632WAT    EPW55236   2.832   2.013   5.663 -0.7167  0.1992  0.0336
13633WAT      O55237   4.595   1.008   0.740 -0.0301  0.5463  0.3544
13633WAT     H155238   4.601   0.943   0.798 -0.2418  0.9279  0.8085
13633WAT     H255239   4.543   0.976   0.678 -0.2746  0.3483  0.6622
13633WAT    EPW55240   4.588   0.994   0.740 -1.0383  0.2302 -0.0027
13634WAT      O55241   6.483   3.925   3.064  0.7980 -0.0964 -0.2123
13634WAT     H155242   6.488   4.012   3.057  0.3918 -0.1918 -2.1412
13634WAT     H255243   6.405   3.906   3.030  1.2319 -1.2899 -0.5927
13634WAT    EPW55244   6.472   3.935   3.058  0.3277 -0.3528 -0.3702
13635WAT      O55245   0.986   4.009   0.952 -0.1811 -0.2892 -0.2020
13635WAT     H155246   0.944   4.002   0.876 -3.1884 -1.5923  1.4089
13635WAT     H255247   1.021   3.930   0.964  0.7074  0.0587 -0.3993
13635WAT    EPW55248   0.985   3.996   0.943 -0.2052 -0.4795 -0.1270
13636WAT      O55249   1.088   1.126   5.944  0.0002 -0.3600 -0.1852
13636WAT     H155250   1.157   1.179   5.952  0.0104 -0.2103 -1.1509
13636WAT     H255251   1.056   1.122   6.025 -1.3781  2.9814 -0.4293
13636WAT    EPW55252   1.094   1.133   5.957  0.1467  0.1510  0.0546
13637WAT      O55253   3.388   6.943   2.912 -0.4144  0.1321  0.0496
13637WAT     H155254   3.329   6.928   2.849 -0.1248 -1.5956  0.1262
13637WAT     H255255   3.339   6.963   2.982 -0.8099  0.6538 -0.3751
13637WAT    EPW55256   3.372   6.943   2.913  0.6418  0.0056  0.1633
13638WAT      O55257   1.121   2.241   7.046  0.7869 -0.0671 -0.5510
13638WAT     H155258   1.050   2.200   7.015  1.5982 -2.0255  0.0372
13638WAT     H255259   1.140   2.298   6.983 -1.3580  0.5970 -0.6785
13638WAT    EPW55260   1.113   2.243   7.032  0.2532 -0.3416  0.1648
13639WAT      O55261   6.496   3.560   1.498 -0.5028 -0.0771 -0.0494
13639WAT     H155262   6.452   3.614   1.550  0.3214 -0.4124  1.0399
13639WAT     H255263   6.550   3.613   1.454  0.3861  0.0228  1.0986
13639WAT    EPW55264   6.497   3.576   1.499 -0.4398 -0.3948  0.5483
13640WAT      O55265   0.549   1.785   1.128 -0.1093 -0.2225 -0.0645
13640WAT     H155266   0.567   1.846   1.188 -0.9501 -0.0652  0.0458
13640WAT     H255267   0.484   1.820   1.082 -0.2677 -0.8282 -0.3186
13640WAT    EPW55268   0.542   1.799   1.130 -0.3530 -0.3260  0.0131
13641WAT      O55269   2.655   2.403   7.505 -0.3202 -0.6399 -0.0308
13641WAT     H155270   2.656   2.446   7.581  0.0867  0.7560 -0.7896
13641WAT     H255271   2.652   2.319   7.529 -0.8508 -0.2124  1.5127
13641WAT    EPW55272   2.655   2.397   7.519  0.5793 -0.0915  0.7243
13642WAT      O55273   0.321   6.867   1.583 -0.2327  0.0287  0.4408
13642WAT     H155274   0.264   6.800   1.577 -0.5692  0.3825 -0.5066
13642WAT     H255275   0.395   6.828   1.606 -0.7358 -0.5074  1.2206
13642WAT    EPW55276   0.323   6.851   1.585 -0.0748  0.4685  0.2066
13643WAT      O55277   2.617   2.238   4.000 -0.1421 -0.3621 -0.6309
13643WAT     H155278   2.661   2.176   3.957 -0.7120 -0.5008 -1.0254
13643WAT     H255279   2.678   2.297   4.019  0.6342 -1.5064  0.6637
13643WAT    EPW55280   2.632   2.237   3.996 -0.2638  0.1754 -0.1904
13644WAT      O55281   0.241   1.041   6.208 -0.2435 -0.0862 -0.3671
13644WAT     H155282   0.288   1.106   6.242  1.5215 -1.1271 -0.6869
13644WAT     H255283   0.180   1.025   6.269 -0.3142  1.4053 -0.0119
13644WAT    EPW55284   0.239   1.048   6.222 -0.2671 -0.0162  0.9704
13645WAT      O55285   7.140   1.603   2.370 -0.0465  0.6397 -0.3151
13645WAT     H155286   7.066   1.564   2.397  0.5831 -1.5440 -1.5035
13645WAT     H255287   7.202   1.552   2.404  0.8354  0.6748 -1.8308
13645WAT    EPW55288   7.138   1.590   2.379 -0.1667 -0.1473  0.3018
13646WAT      O55289   3.120   6.731   6.800  0.6789 -0.0995 -0.1907
13646WAT     H155290   3.111   6.677   6.733  1.1848 -0.6094  0.1391
13646WAT     H255291   3.173   6.794   6.770  1.8457 -0.9238  0.0479
13646WAT    EPW55292   3.127   6.733   6.786  0.3206 -0.7463 -0.0613
13647WAT      O55293   4.916   6.417   6.913  0.6005  0.1439 -0.0664
13647WAT     H155294   4.996   6.418   6.879  1.0401 -0.2540  0.9086
13647WAT     H255295   4.929   6.392   6.996 -0.5879 -0.4829 -0.0426
13647WAT    EPW55296   4.929   6.414   6.921 -0.8866 -0.3370  0.4383
13648WAT      O55297   2.793   7.128   0.855 -0.2723  0.1872 -0.4437
13648WAT     H155298   2.857   7.075   0.882  1.5968  1.1360 -2.6599
13648WAT     H255299   2.748   7.079   0.799  0.0901  0.2546 -0.8001
13648WAT    EPW55300   2.796   7.113   0.850 -0.7230  0.1598  0.3759
13649WAT      O55301   5.696   3.067   2.645  0.4496  0.0452 -0.6837
13649WAT     H155302   5.689   3.088   2.561  0.0303 -0.9069 -0.8964
13649WAT     H255303   5.734   2.989   2.645 -0.2551 -0.3201 -0.0378
13649WAT    EPW55304   5.700   3.058   2.633  0.5006  0.3165  0.1636
13650WAT      O55305   2.601   1.896   3.319  0.7108  0.3349  0.5413
13650WAT     H155306   2.678   1.932   3.303  1.3938 -1.5240 -0.6268
13650WAT     H255307   2.620   1.814   3.339 -1.0242 -0.4202 -0.6937
13650WAT    EPW55308   2.615   1.890   3.320 -0.0559 -0.0788  0.4771
13651WAT      O55309   0.417   1.331   5.124 -0.4033  0.3667  0.3445
13651WAT     H155310   0.427   1.417   5.136 -0.2308  0.2699  0.9620
13651WAT     H255311   0.472   1.313   5.059 -0.7465  0.7913 -0.0652
13651WAT    EPW55312   0.427   1.341   5.116  0.6313 -0.7558  0.2287
13652WAT      O55313   2.945   1.657   6.169 -0.5165  0.2459  0.0126
13652WAT     H155314   3.025   1.654   6.134 -0.9878 -1.2827 -1.0935
13652WAT     H255315   2.920   1.740   6.159  0.4566  0.4567 -0.7772
13652WAT    EPW55316   2.953   1.669   6.162 -0.4160 -0.1126 -0.4913
13653WAT      O55317   6.479   3.092   4.985 -0.1430 -0.6378  0.4499
13653WAT     H155318   6.512   3.164   4.948  1.2616 -0.8716  1.1633
13653WAT     H255319   6.419   3.123   5.041  0.2439 -0.0375  0.5375
13653WAT    EPW55320   6.475   3.107   4.988  0.5153 -0.6615  0.0405
13654WAT      O55321   6.034   0.530   0.911  0.1626  0.2754  0.1379
13654WAT     H155322   5.988   0.603   0.921  1.1918  1.0378 -0.5204
13654WAT     H255323   6.112   0.558   0.885  1.4667 -0.8704  2.4680
13654WAT    EPW55324   6.039   0.545   0.908 -0.1372 -0.2743  0.0769
13655WAT      O55325   2.465   7.508   5.869 -0.1160 -0.2936 -0.4030
13655WAT     H155326   2.412   7.468   5.812  0.3396  0.4368 -1.3508
13655WAT     H255327   2.498   7.442   5.915 -0.1896 -0.9269 -1.2383
13655WAT    EPW55328   2.462   7.492   5.868 -0.1773  0.1395 -0.1969
13656WAT      O55329   5.190   3.892   6.647 -0.1255  0.2546 -0.0915
13656WAT     H155330   5.187   3.926   6.727  0.1039 -0.0172  0.0328
13656WAT     H255331   5.186   3.962   6.595  0.5813  0.4855  0.1645
13656WAT    EPW55332   5.189   3.908   6.651  0.2068  0.2981 -0.2595
13657WAT      O55333   2.744   2.857   4.937  0.2847 -0.2724 -0.0291
13657WAT     H155334   2.685   2.809   4.894 -0.4499 -0.8306  1.5301
13657WAT     H255335   2.783   2.800   4.990  2.2467  0.1002 -1.0111
13657WAT    EPW55336   2.741   2.842   4.939  0.6598  0.0056 -0.2774
13658WAT      O55337   1.468   5.274   4.503 -0.2226  0.4706  0.3633
13658WAT     H155338   1.494   5.249   4.582 -1.3854 -0.3459  0.5147
13658WAT     H255339   1.541   5.303   4.465  0.4474  0.3648  1.5426
13658WAT    EPW55340   1.483   5.274   4.509 -0.0072  0.1237  0.1083
13659WAT      O55341   2.651   5.029   6.144 -0.1486  0.2309  0.7344
13659WAT     H155342   2.584   5.001   6.192 -0.7044  3.2356  1.8736
13659WAT     H255343   2.705   5.065   6.202  0.7799  0.9745 -0.5316
13659WAT    EPW55344   2.650   5.030   6.160 -0.5229 -0.2949 -0.5033
13660WAT      O55345   2.851   0.091   4.402 -0.3304 -0.1413 -0.0980
13660WAT     H155346   2.825   0.053   4.476 -0.4060 -0.0677 -0.0856
13660WAT     H255347   2.792   0.065   4.343 -0.2364 -0.2480 -0.1457
13660WAT    EPW55348   2.838   0.082   4.404  0.4065  0.8228  0.4950
13661WAT      O55349   6.527   6.377   7.197  0.2335  0.1052 -0.4297
13661WAT     H155350   6.603   6.415   7.181 -0.1569  1.5155  0.8585
13661WAT     H255351   6.491   6.367   7.118  1.8132 -0.8095 -1.0735
13661WAT    EPW55352   6.533   6.381   7.183 -0.2661  0.4731 -0.1515
13662WAT      O55353   2.949   3.703   5.700 -0.0306 -0.0767  0.7128
13662WAT     H155354   2.921   3.650   5.763 -1.8572 -0.6748 -0.5080
13662WAT     H255355   3.036   3.704   5.710 -0.1736 -1.1753  2.3936
13662WAT    EPW55356   2.958   3.695   5.710 -0.6522 -0.1708  1.0680
13663WAT      O55357   6.997   2.494   1.561 -0.3321  0.3841 -0.2840
13663WAT     H155358   7.033   2.512   1.638 -0.9533  1.0449 -0.1328
13663WAT     H255359   6.946   2.426   1.577 -1.8358  1.6012  0.3301
13663WAT    EPW55360   6.995   2.487   1.575  0.6078  0.1249  0.3855
13664WAT      O55361   1.467   6.731   3.246 -0.0760  0.0648  0.1522
13664WAT     H155362   1.446   6.744   3.330  1.0674 -0.6819  0.5743
13664WAT     H255363   1.554   6.724   3.248 -0.1789 -2.0230 -0.7943
13664WAT    EPW55364   1.477   6.732   3.259  0.3926 -0.3227  0.1278
13665WAT      O55365   4.797   4.394   4.053 -0.2011 -0.2620 -0.0698
13665WAT     H155366   4.822   4.432   4.128 -2.8146 -0.8302  1.2133
13665WAT     H255367   4.743   4.452   4.018  1.1450  0.0846 -1.7156
13665WAT    EPW55368   4.793   4.408   4.059  0.1097 -0.1421  0.2528
13666WAT      O55369   4.428   7.325   1.172 -0.2470 -0.4213 -0.2936
13666WAT     H155370   4.373   7.381   1.210 -1.8650 -2.1078  0.0053
13666WAT     H255371   4.480   7.299   1.237 -0.1277 -0.0101 -0.2242
13666WAT    EPW55372   4.427   7.329   1.187 -0.7023 -0.1989 -0.2825
13667WAT      O55373   7.625   1.839   6.563 -0.2455  0.4358 -0.2362
13667WAT     H155374   7.701   1.820   6.601 -0.9896 -2.4234  0.0015
13667WAT     H255375   7.606   1.767   6.518 -0.9037  2.5193 -3.6840
13667WAT    EPW55376   7.634   1.826   6.562 -0.8505  0.0431 -0.4849
13668WAT      O55377   5.567   3.404   6.571 -0.1234  0.0140  0.0628
13668WAT     H155378   5.630   3.457   6.541 -1.5224  2.0798  0.5665
13668WAT     H255379   5.524   3.381   6.499  0.4828 -0.4846 -0.1555
13668WAT    EPW55380   5.570   3.408   6.556 -0.2438 -0.0731  0.0028
13669WAT      O55381   6.053   6.901   3.400 -0.0714 -0.4539  0.1647
13669WAT     H155382   6.104   6.916   3.469  0.2857 -0.0015 -0.1948
13669WAT     H255383   6.093   6.942   3.335 -0.4218 -0.8538 -0.3113
13669WAT    EPW55384   6.066   6.909   3.401 -0.1452 -0.2128 -0.1367
13670WAT      O55385   1.009   0.925   3.303 -0.2934  0.4852  0.0532
13670WAT     H155386   1.049   0.847   3.307 -0.7403  0.2449 -0.0982
13670WAT     H255387   1.073   0.981   3.321  0.3982  0.1861 -1.3054
13670WAT    EPW55388   1.024   0.922   3.306 -0.2599 -0.0372  0.5206
13671WAT      O55389   4.486   2.140   6.004  0.2702 -0.0641 -0.0427
13671WAT     H155390   4.505   2.063   5.968 -1.4567 -0.2972 -0.5485
13671WAT     H255391   4.406   2.127   6.037  0.8502  0.8520  1.8483
13671WAT    EPW55392   4.477   2.127   6.004  0.0493  0.8332 -0.1800
13672WAT      O55393   3.738   5.749   4.925  0.3555 -0.2597  0.0142
13672WAT     H155394   3.738   5.773   5.009 -0.2171  0.5247 -0.1959
13672WAT     H255395   3.723   5.824   4.883 -1.5178 -0.9507 -0.6805
13672WAT    EPW55396   3.736   5.764   4.931 -0.3861  0.1907  0.0513
13673WAT      O55397   0.416   0.371   7.150 -0.6225 -0.0905 -0.4561
13673WAT     H155398   0.501   0.353   7.142 -0.8830 -1.3301 -0.6929
13673WAT     H255399   0.410   0.407   7.229  0.0849 -0.3043 -0.2953
13673WAT    EPW55400   0.427   0.373   7.161  0.1378  0.5377  0.5692
13674WAT      O55401   5.237   0.445   0.928 -0.5076  0.2173 -0.1202
13674WAT     H155402   5.198   0.372   0.902 -0.3388 -0.0226  0.3031
13674WAT     H255403   5.238   0.494   0.856 -2.3084  0.5499  0.0313
13674WAT    EPW55404   5.231   0.442   0.914  0.0947  0.1789  0.2985
13675WAT      O55405   1.999   4.546   3.667 -0.0624  0.0226 -0.1522
13675WAT     H155406   2.050   4.504   3.724 -1.1153  0.6062  1.3066
13675WAT     H255407   2.054   4.598   3.625  0.7103 -0.1406  0.6077
13675WAT    EPW55408   2.015   4.547   3.670 -0.2062 -0.2362  0.0227
13676WAT      O55409   1.231   3.729   2.827 -0.4068  0.0653  0.1795
13676WAT     H155410   1.191   3.777   2.766 -0.3514 -1.4315 -1.0903
13676WAT     H255411   1.310   3.715   2.794 -0.8476 -1.9869 -0.1335
13676WAT    EPW55412   1.236   3.734   2.813 -0.6505 -0.5449 -0.0526
13677WAT      O55413   7.113   3.737   3.041 -0.3809  0.0945  0.2326
13677WAT     H155414   7.104   3.816   3.077 -0.3007 -0.6463  1.9376
13677WAT     H255415   7.194   3.738   3.009  0.4124 -0.0176  2.1465
13677WAT    EPW55416   7.124   3.749   3.041  0.3019  0.1189 -0.0724
13678WAT      O55417   0.950   6.765   3.205  0.6157  0.2018  0.2688
13678WAT     H155418   0.907   6.711   3.151  1.7400 -0.4398 -0.0140
13678WAT     H255419   0.963   6.836   3.156  2.1546 -0.6005 -0.5514
13678WAT    EPW55420   0.946   6.767   3.190  0.8644 -0.7438 -0.3488
13679WAT      O55421   1.646   1.006   4.574 -0.5597  0.4545 -0.2817
13679WAT     H155422   1.644   0.944   4.513 -0.0621 -0.6377  0.7542
13679WAT     H255423   1.711   0.980   4.627 -1.1518  1.2040  0.8605
13679WAT    EPW55424   1.656   0.993   4.573  0.4273  0.5944 -0.0991
13680WAT      O55425   3.049   4.870   3.107  0.1678  0.1394 -0.1994
13680WAT     H155426   3.064   4.801   3.056 -2.4220 -1.4386  0.9786
13680WAT     H255427   3.082   4.847   3.184  1.1656  1.1618 -0.2866
13680WAT    EPW55428   3.056   4.856   3.111  0.7750  0.6663 -0.2697
13681WAT      O55429   3.137   0.332   5.046  0.0794  0.1925  0.2666
13681WAT     H155430   3.129   0.415   5.021  1.1460  0.5713  1.0783
13681WAT     H255431   3.183   0.338   5.120 -0.6433 -1.0609  0.8452
13681WAT    EPW55432   3.143   0.345   5.053  0.0792 -0.0732 -0.0287
13682WAT      O55433   4.147   2.712   1.747 -0.2780 -0.1431  0.0005
13682WAT     H155434   4.159   2.629   1.726  0.7454 -0.1279  0.4770
13682WAT     H255435   4.061   2.723   1.737 -0.1956 -0.7907 -1.6602
13682WAT    EPW55436   4.136   2.701   1.743 -1.0139 -0.6903  0.2815
13683WAT      O55437   0.794   5.787   1.684  0.2431  0.3137  0.4858
13683WAT     H155438   0.807   5.802   1.769  2.7307  1.7302 -0.0549
13683WAT     H255439   0.782   5.700   1.680  1.3132  0.0483  2.1545
13683WAT    EPW55440   0.794   5.776   1.696 -0.7311  0.5481  0.8959
13684WAT      O55441   6.158   1.993   6.059  0.6678  0.2245  0.0610
13684WAT     H155442   6.210   1.924   6.073  0.1608  0.1718  1.9231
13684WAT     H255443   6.087   1.958   6.023  0.9663 -0.0339 -0.2833
13684WAT    EPW55444   6.155   1.977   6.056  0.4723 -0.2535  0.6344
13685WAT      O55445   3.137   2.738   1.956 -0.0849  0.4571 -0.2164
13685WAT     H155446   3.219   2.716   1.978 -0.3206 -0.3648 -0.1387
13685WAT     H255447   3.130   2.710   1.874  0.1060  1.6424 -0.6539
13685WAT    EPW55448   3.148   2.730   1.947  0.3547 -0.1037 -0.1323
13686WAT      O55449   0.093   5.001   7.394 -0.6836 -0.3914 -0.2620
13686WAT     H155450   0.077   5.052   7.325  0.1013 -1.0261 -0.9389
13686WAT     H255451   0.179   5.014   7.409 -0.7756 -0.5126  0.3919
13686WAT    EPW55452   0.104   5.011   7.386  0.0311  0.0266 -0.1466
13687WAT      O55453   0.564   6.932   5.784 -0.1517  0.2257 -0.0690
13687WAT     H155454   0.597   7.002   5.744  0.4027  0.3710  0.6217
13687WAT     H255455   0.634   6.891   5.816 -0.4130 -0.9646 -0.9338
13687WAT    EPW55456   0.579   6.936   5.783  0.2891  0.0736  0.0007
13688WAT      O55457   6.846   4.311   0.244 -0.0648  0.2522 -0.7087
13688WAT     H155458   6.760   4.307   0.231 -0.4062  1.5872  0.8651
13688WAT     H255459   6.871   4.377   0.193 -0.1138  0.4420 -0.4850
13688WAT    EPW55460   6.837   4.320   0.235 -0.0508 -0.1527  0.2475
13689WAT      O55461   0.545   1.283   6.574  0.2419 -0.5085  0.8538
13689WAT     H155462   0.531   1.364   6.543  0.8757 -0.9449 -0.6198
13689WAT     H255463   0.630   1.285   6.597  0.1148 -0.5999  1.3471
13689WAT    EPW55464   0.556   1.295   6.573 -0.3881  0.6721  0.4738
13690WAT      O55465   1.132   1.374   6.284 -0.3955  0.1396  0.3938
13690WAT     H155466   1.136   1.446   6.235 -2.1989  1.0060  1.3888
13690WAT     H255467   1.169   1.398   6.359  1.6770 -0.9449 -0.2128
13690WAT    EPW55468   1.138   1.388   6.288  0.2659 -0.0425  0.1133
13691WAT      O55469   1.013   5.703   2.368 -0.3698 -0.2551 -0.0656
13691WAT     H155470   1.064   5.637   2.340 -0.8800 -0.6559 -0.0635
13691WAT     H255471   1.039   5.771   2.320  0.9565 -0.1694  0.7366
13691WAT    EPW55472   1.024   5.703   2.357  0.3731  0.3334 -0.3214
13692WAT      O55473   1.862   4.703   0.468 -0.5714  0.1127 -0.1522
13692WAT     H155474   1.852   4.616   0.474  1.0342 -0.0337  1.1859
13692WAT     H255475   1.855   4.719   0.382  0.8842 -1.6130 -0.6522
13692WAT    EPW55476   1.859   4.692   0.456  0.4019  0.4992  0.0770
13693WAT      O55477   2.165   0.634   0.383  0.0521  0.1015  0.2803
13693WAT     H155478   2.216   0.668   0.321  1.3366  1.4598  1.9399
13693WAT     H255479   2.198   0.554   0.395  1.1291  0.5600  0.5585
13693WAT    EPW55480   2.178   0.628   0.376  0.2082 -0.4979 -0.0545
13694WAT      O55481   0.954   3.445   6.133 -0.4780  0.2426  0.0727
13694WAT     H155482   1.039   3.460   6.142 -0.7207  1.3476  0.7189
13694WAT     H255483   0.946   3.423   6.049  0.3316  1.0159 -0.2271
13694WAT    EPW55484   0.965   3.444   6.121 -0.2964 -0.6149 -0.4243
13695WAT      O55485   4.575   1.365   1.740  0.1522  0.2893  0.0481
13695WAT     H155486   4.655   1.362   1.774 -0.3524  1.7742  1.5057
13695WAT     H255487   4.539   1.435   1.777 -1.5556  0.1630 -1.2070
13695WAT    EPW55488   4.581   1.375   1.750 -0.0698 -0.1287 -0.2326
13696WAT      O55489   7.580   2.732   4.016  0.4545  0.0114 -0.2603
13696WAT     H155490   7.606   2.756   4.096  0.2645  0.2969 -0.2810
13696WAT     H255491   7.593   2.646   4.016  1.4184  0.1424 -0.2843
13696WAT    EPW55492   7.586   2.723   4.028 -0.0441 -0.1885 -0.1888
13697WAT      O55493   2.187   6.728   3.984  0.5488  0.3655  0.2771
13697WAT     H155494   2.203   6.649   4.019  0.1019 -0.5438 -1.4349
13697WAT     H255495   2.106   6.747   4.010  0.2192 -0.3041 -0.2177
13697WAT    EPW55496   2.178   6.719   3.993  0.3035 -0.1207  0.0571
13698WAT      O55497   3.905   3.891   6.369 -0.3708 -0.2846  0.2845
13698WAT     H155498   3.823   3.867   6.357  0.2577 -1.6277 -1.6577
13698WAT     H255499   3.909   3.971   6.334 -0.6981 -0.4741 -0.1822
13698WAT    EPW55500   3.894   3.899   6.362  0.1041  0.2740  0.4356
13699WAT      O55501   5.398   6.100   0.609 -0.1010  0.3315  0.3697
13699WAT     H155502   5.404   6.020   0.643  0.4729  0.7795  1.3744
13699WAT     H255503   5.453   6.147   0.657  0.6050  1.0600 -1.0630
13699WAT    EPW55504   5.407   6.095   0.621  0.0516 -0.1209  0.1605
13700WAT      O55505   3.241   2.754   6.757 -0.6822 -0.2760 -0.2773
13700WAT     H155506   3.327   2.766   6.752 -0.8921  1.5158 -0.5375
13700WAT     H255507   3.226   2.748   6.843 -0.6079  3.0237  0.0908
13700WAT    EPW55508   3.251   2.755   6.769 -0.0251  0.3688 -0.1828
13701WAT      O55509   4.157   5.271   1.945  0.3161 -0.0921  0.3584
13701WAT     H155510   4.227   5.324   1.948  0.1361  0.5187 -2.6899
13701WAT     H255511   4.186   5.202   1.900 -0.5392 -0.7679  0.8110
13701WAT    EPW55512   4.172   5.269   1.939  0.8145  0.2766  0.0352
13702WAT      O55513   0.288   1.005   7.204  0.1063  0.4485  0.1253
13702WAT     H155514   0.360   1.052   7.214  0.3805 -0.0744  0.6813
13702WAT     H255515   0.226   1.064   7.188  0.8054  0.8502 -1.3056
13702WAT    EPW55516   0.289   1.020   7.203 -0.1403 -0.2892 -0.1131
13703WAT      O55517   2.076   1.622   6.811  0.3454  0.1167 -0.0251
13703WAT     H155518   2.042   1.670   6.875  0.8029  0.7720 -0.2691
13703WAT     H255519   2.125   1.678   6.766  0.8914 -0.5761 -0.3188
13703WAT    EPW55520   2.078   1.637   6.813  0.6091  0.3632 -0.0076
13704WAT      O55521   4.565   3.894   6.185  0.5762 -0.6310  0.0802
13704WAT     H155522   4.546   3.977   6.166  1.2240 -0.4591  0.1530
13704WAT     H255523   4.618   3.870   6.120  1.2039 -0.6628  0.5958
13704WAT    EPW55524   4.570   3.903   6.173  0.3350 -0.2108 -0.2903
13705WAT      O55525   6.528   0.591   3.250 -0.1895  0.4636 -0.0031
13705WAT     H155526   6.556   0.569   3.330  0.6596  1.9956  0.1580
13705WAT     H255527   6.590   0.559   3.197 -1.2860 -1.4916 -0.1835
13705WAT    EPW55528   6.541   0.583   3.254  0.3142 -0.4203  0.4648
13706WAT      O55529   2.553   0.792   7.096 -0.2779  0.0481  0.1162
13706WAT     H155530   2.634   0.783   7.064  0.5862  0.8837  1.9226
13706WAT     H255531   2.543   0.878   7.103 -1.2513 -0.0549  0.1249
13706WAT    EPW55532   2.563   0.803   7.092 -0.4867  0.8782 -0.3411
13707WAT      O55533   6.399   6.214   1.584  0.0448 -0.2710 -0.0438
13707WAT     H155534   6.479   6.184   1.598  0.7669  2.1129  1.6295
13707WAT     H255535   6.382   6.262   1.655 -3.4520 -1.7249  0.3451
13707WAT    EPW55536   6.408   6.217   1.596 -0.1850  0.1844 -0.1101
13708WAT      O55537   5.757   2.271   4.615 -0.1673 -0.2796  0.4774
13708WAT     H155538   5.808   2.204   4.637  1.2674  0.8095  0.5689
13708WAT     H255539   5.726   2.299   4.691  1.7188  1.0608  0.8269
13708WAT    EPW55540   5.760   2.265   4.629 -0.1750 -0.1609 -0.4153
13709WAT      O55541   2.510   6.374   0.406 -0.5709  0.3365 -0.2929
13709WAT     H155542   2.477   6.332   0.337  0.0768  0.3605 -0.6280
13709WAT     H255543   2.584   6.330   0.424  0.3198  1.5211 -0.8833
13709WAT    EPW55544   2.516   6.361   0.399  0.4060  0.1443 -0.3384
13710WAT      O55545   3.101   0.736   4.726 -0.3127  0.0440  0.0540
13710WAT     H155546   3.147   0.709   4.657 -0.9448  1.6781 -1.0695
13710WAT     H255547   3.066   0.811   4.699 -2.1248 -0.2093  1.4970
13710WAT    EPW55548   3.102   0.743   4.712  0.0600 -0.6337 -0.0619
13711WAT      O55549   7.584   2.994   6.124 -0.5590  0.1576  0.4302
13711WAT     H155550   7.514   2.949   6.099  0.1809 -1.5257  1.2169
13711WAT     H255551   7.560   3.027   6.201 -0.9627  0.7945  0.0402
13711WAT    EPW55552   7.570   2.992   6.132  0.3963 -0.4432  0.1239
13712WAT      O55553   1.949   6.365   5.288  0.1434 -0.1457  0.0246
13712WAT     H155554   1.919   6.301   5.339 -0.0748 -0.2873 -0.2822
13712WAT     H255555   2.029   6.380   5.320  0.2770 -0.7125 -0.0315
13712WAT    EPW55556   1.957   6.358   5.300 -0.3026 -0.0442  0.6894
13713WAT      O55557   5.397   4.113   5.276 -0.1941  0.1378  0.5600
13713WAT     H155558   5.370   4.167   5.338  1.0787 -0.0510  1.3236
13713WAT     H255559   5.326   4.066   5.257 -1.0872  1.4552  0.5110
13713WAT    EPW55560   5.383   4.114   5.282  0.4315  0.3450  0.3670
13714WAT      O55561   4.718   2.475   2.110  0.1752 -0.5931  0.5407
13714WAT     H155562   4.693   2.558   2.116  1.2577 -0.3426  2.5873
13714WAT     H255563   4.692   2.451   2.030 -2.5148  0.9178  0.8363
13714WAT    EPW55564   4.710   2.483   2.099 -0.2485  0.1045  0.0946
13715WAT      O55565   7.547   2.040   5.117 -0.0806 -0.1110 -0.0401
13715WAT     H155566   7.627   2.035   5.150  0.2187  1.0443 -0.5422
13715WAT     H255567   7.501   1.983   5.165  0.4308  1.1359  2.0591
13715WAT    EPW55568   7.552   2.031   5.129 -0.3428 -0.0650  0.7872
13716WAT      O55569   3.791   7.372   3.671  0.2278 -0.6267 -0.7882
13716WAT     H155570   3.732   7.368   3.735  2.2962  2.3790  1.5863
13716WAT     H255571   3.830   7.295   3.675 -0.0564 -0.7303  1.2809
13716WAT    EPW55572   3.788   7.360   3.681  0.1993  0.1949 -0.5885
13717WAT      O55573   6.989   4.506   2.591 -0.6832  0.4240  0.3346
13717WAT     H155574   7.040   4.573   2.615 -0.1075 -0.4406  1.6392
13717WAT     H255575   6.920   4.513   2.644 -1.0600  0.5196 -0.1647
13717WAT    EPW55576   6.987   4.517   2.603  0.2306 -0.2338 -0.2659
13718WAT      O55577   1.312   3.466   6.590  0.0493 -1.1123  0.2276
13718WAT     H155578   1.303   3.550   6.567  1.9161 -1.1865 -0.9979
13718WAT     H255579   1.231   3.434   6.580 -0.6490  0.4746  0.4831
13718WAT    EPW55580   1.299   3.474   6.585  0.4471  0.2613  0.2865
13719WAT      O55581   0.729   5.925   5.839  0.1788 -0.2396 -0.2902
13719WAT     H155582   0.699   5.845   5.859 -2.0166 -0.1551 -2.7770
13719WAT     H255583   0.756   5.956   5.916  0.3526 -3.0238  0.9158
13719WAT    EPW55584   0.729   5.918   5.854 -0.2481  0.3419  0.1622
13720WAT      O55585   3.980   2.462   4.520  0.5358 -0.0092 -0.1722
13720WAT     H155586   3.922   2.497   4.575 -0.3851  0.3986 -1.3662
13720WAT     H255587   3.941   2.389   4.493  1.5802 -0.9424  0.7447
13720WAT    EPW55588   3.966   2.456   4.524 -0.0813  0.4244  0.1898
13721WAT      O55589   4.522   4.636   4.203  0.0776 -0.5545  0.1903
13721WAT     H155590   4.526   4.560   4.246 -0.0592 -1.3935 -1.2057
13721WAT     H255591   4.445   4.632   4.162 -0.9216  1.3116  1.7403
13721WAT    EPW55592   4.511   4.624   4.203 -0.0357 -0.3530  0.3652
13722WAT      O55593   7.608   1.840   1.680  0.3671 -0.4187 -0.5307
13722WAT     H155594   7.690   1.855   1.653  0.1140  0.7092 -0.7158
13722WAT     H255595   7.616   1.826   1.765  0.7226 -0.0021 -0.4946
13722WAT    EPW55596   7.621   1.840   1.689 -0.0116 -0.3182 -0.8433
13723WAT      O55597   2.068   6.210   0.838  0.1083 -0.3186  0.4863
13723WAT     H155598   1.992   6.198   0.798 -0.0222  1.2848  0.2060
13723WAT     H255599   2.127   6.183   0.779 -0.1867 -0.3593  0.2106
13723WAT    EPW55600   2.066   6.204   0.824  0.4069 -0.2547  0.0528
13724WAT      O55601   4.341   3.631   1.709  0.0231  0.1481 -0.7065
13724WAT     H155602   4.407   3.581   1.682 -1.5953 -0.4124 -4.1980
13724WAT     H255603   4.377   3.711   1.713  1.4430 -0.4832 -0.1320
13724WAT    EPW55604   4.356   3.635   1.706 -0.1842 -0.3573 -0.5543
13725WAT      O55605   5.255   2.548   3.038 -0.2190  0.5752  0.1383
13725WAT     H155606   5.255   2.550   3.125 -1.2138 -0.7775  0.2034
13725WAT     H255607   5.249   2.632   3.016  0.0023  0.9415  1.3656
13725WAT    EPW55608   5.254   2.561   3.048 -0.7274 -0.2121 -0.5199
13726WAT      O55609   2.886   6.712   0.142  0.2120 -0.0881 -0.0609
13726WAT     H155610   2.907   6.737   0.061 -0.4203  2.3940  0.4669
13726WAT     H255611   2.805   6.682   0.134  0.9358 -2.0866 -0.6792
13726WAT    EPW55612   2.877   6.711   0.129  0.4517  0.7994  0.0284
13727WAT      O55613   1.891   4.267   3.855 -0.7063  0.8345  0.0336
13727WAT     H155614   1.873   4.231   3.778 -0.4742 -0.4314  0.5429
13727WAT     H255615   1.844   4.220   3.912  1.2476 -0.1573  0.9632
13727WAT    EPW55616   1.882   4.255   3.852 -0.3412 -0.4274 -0.1975
13728WAT      O55617   0.175   4.394   7.157 -0.1534  0.2876 -0.1323
13728WAT     H155618   0.129   4.444   7.102  0.2903  2.3029  1.2188
13728WAT     H255619   0.231   4.450   7.193  1.6966 -1.5995  0.0979
13728WAT    EPW55620   0.176   4.410   7.154 -0.1457  0.4158 -0.4068
13729WAT      O55621   5.090   4.219   1.710 -0.0981 -0.0193 -0.5691
13729WAT     H155622   5.157   4.193   1.760  0.4030  0.4609 -0.9891
13729WAT     H255623   5.097   4.306   1.709  0.4197 -0.0420 -2.1637
13729WAT    EPW55624   5.101   4.228   1.717 -0.3796 -0.0695  0.3399
13730WAT      O55625   1.378   7.441   5.679  1.0790 -0.2595 -0.1717
13730WAT     H155626   1.416   7.425   5.756 -0.3978 -0.7233  0.5070
13730WAT     H255627   1.429   7.399   5.622  1.8850 -0.3889  0.6205
13730WAT    EPW55628   1.391   7.432   5.682  0.2191  0.1389 -0.2011
13731WAT      O55629   7.322   3.791   1.256  0.6651  0.3029  0.1842
13731WAT     H155630   7.317   3.806   1.170  0.4120  2.3687  0.5134
13731WAT     H255631   7.381   3.727   1.262  1.1789  0.5684 -1.4687
13731WAT    EPW55632   7.330   3.783   1.244  0.1745  0.2715  0.4867
13732WAT      O55633   0.124   6.795   5.138  0.2314  0.1058  0.0324
13732WAT     H155634   0.096   6.729   5.089 -0.2799 -1.1180  1.8451
13732WAT     H255635   0.062   6.855   5.128 -0.5806 -0.6686  0.2255
13732WAT    EPW55636   0.110   6.794   5.129  0.4032 -0.0785 -0.2769
13733WAT      O55637   0.759   1.014   0.152 -0.1698 -0.1563 -0.1684
13733WAT     H155638   0.723   0.937   0.173 -0.1395  0.3666  2.0465
13733WAT     H255639   0.844   0.996   0.146 -0.3254 -0.6012 -1.4250
13733WAT    EPW55640   0.766   1.000   0.154 -0.2182  0.2844  0.2751
13734WAT      O55641   2.179   7.247   0.574  0.3909 -0.4991 -0.2050
13734WAT     H155642   2.126   7.257   0.505 -2.5682  1.1373  2.0408
13734WAT     H255643   2.149   7.174   0.612  0.7861 -0.4039  0.3031
13734WAT    EPW55644   2.166   7.238   0.570  0.4113  0.0038 -0.2274
13735WAT      O55645   3.931   2.178   4.439  0.0430 -0.5488 -0.1170
13735WAT     H155646   3.987   2.216   4.384 -0.5433 -0.6159 -0.7719
13735WAT     H255647   3.889   2.120   4.389 -1.5484  0.4227  0.0350
13735WAT    EPW55648   3.933   2.175   4.423  0.0305  0.1844 -0.3658
13736WAT      O55649   2.391   4.919   2.290 -0.8831  0.7680 -0.4981
13736WAT     H155650   2.360   4.853   2.339 -0.5909  0.5874 -0.5564
13736WAT     H255651   2.325   4.935   2.235 -0.8854  0.3931 -0.6111
13736WAT    EPW55652   2.377   4.911   2.289  0.2027 -0.4506 -0.3777
13737WAT      O55653   4.398   0.100   0.597  0.8530 -0.1899 -0.1264
13737WAT     H155654   4.339   0.152   0.634  2.1681  0.1265  1.6555
13737WAT     H255655   4.385   0.023   0.636 -0.3223 -0.9626 -1.9207
13737WAT    EPW55656   4.388   0.096   0.608  0.0825  0.2346  0.3274
13738WAT      O55657   5.599   4.646   6.129  0.2701 -0.3521  0.0223
13738WAT     H155658   5.584   4.732   6.122  1.6685 -0.1187 -0.5727
13738WAT     H255659   5.523   4.613   6.155 -0.5873  0.9488 -0.7486
13738WAT    EPW55660   5.586   4.654   6.132 -0.1142  0.0522 -0.3267
13739WAT      O55661   6.274   2.988   6.284 -0.2305 -0.6837  0.3130
13739WAT     H155662   6.281   2.902   6.274  0.2250 -0.6258  0.0793
13739WAT     H255663   6.348   3.018   6.249 -0.7141 -0.1459 -0.2764
13739WAT    EPW55664   6.286   2.980   6.277  0.1453  0.5663  0.2222
13740WAT      O55665   7.271   3.289   7.227 -0.1880 -0.6024  0.5634
13740WAT     H155666   7.307   3.231   7.280 -0.6462 -0.4620  1.0276
13740WAT     H255667   7.258   3.359   7.278 -2.0088 -0.9720  0.6539
13740WAT    EPW55668   7.274   3.291   7.242 -0.6571  0.1113 -0.1496
13741WAT      O55669   2.196   2.206   0.250  0.4436  0.0367  0.1015
13741WAT     H155670   2.227   2.288   0.251  2.4926 -0.4924 -3.1555
13741WAT     H255671   2.163   2.198   0.170 -1.3092 -1.8604  0.9378
13741WAT    EPW55672   2.196   2.217   0.239  0.0571  0.0625  0.6048
13742WAT      O55673   1.143   2.130   2.116  0.4786 -0.3657  0.0911
13742WAT     H155674   1.215   2.140   2.164  0.6229  1.4589 -0.4356
13742WAT     H255675   1.159   2.177   2.044 -0.4192 -1.6360 -0.9784
13742WAT    EPW55676   1.156   2.139   2.113  0.0941  0.1709 -0.2355
13743WAT      O55677   7.112   1.765   5.840  0.4085 -0.2827 -0.4018
13743WAT     H155678   7.081   1.705   5.784 -2.2470  0.0798  0.5636
13743WAT     H255679   7.113   1.722   5.916  1.2974  0.0700 -0.2067
13743WAT    EPW55680   7.108   1.750   5.843 -0.0997 -0.1461 -0.4754
13744WAT      O55681   6.133   7.287   2.994 -0.2219  0.5303 -0.4494
13744WAT     H155682   6.114   7.212   3.035 -0.3125 -0.1739 -1.7196
13744WAT     H255683   6.070   7.293   2.933  0.4940  0.9957 -1.1595
13744WAT    EPW55684   6.121   7.276   2.991  0.3986 -1.0171  0.3246
13745WAT      O55685   6.156   1.152   3.590 -0.0805  0.1180  0.2470
13745WAT     H155686   6.080   1.132   3.552  0.9933 -1.4168 -1.2181
13745WAT     H255687   6.152   1.109   3.666 -0.6134 -0.0539  0.1317
13745WAT    EPW55688   6.144   1.143   3.596 -0.1619  0.0500 -0.3807
13746WAT      O55689   6.219   4.134   2.699  0.7591  0.0200 -0.0141
13746WAT     H155690   6.168   4.166   2.636 -0.8567 -0.3549  1.0535
13746WAT     H255691   6.187   4.171   2.771  0.6380 -1.8211  0.9164
13746WAT    EPW55692   6.207   4.144   2.700 -0.3468  0.2726 -0.0762
13747WAT      O55693   0.597   3.167   3.996 -0.2061 -1.2118  0.6353
13747WAT     H155694   0.564   3.106   3.943 -2.4028 -0.1186  0.6499
13747WAT     H255695   0.666   3.198   3.952  1.3992 -4.0639  0.9210
13747WAT    EPW55696   0.602   3.163   3.982  0.5489  0.2670  0.1360
13748WAT      O55697   4.168   0.215   5.972 -0.5420  1.3204  0.5691
13748WAT     H155698   4.113   0.232   5.907  0.5728  1.5841 -0.3449
13748WAT     H255699   4.139   0.267   6.037 -1.2724  1.5561  0.0711
13748WAT    EPW55700   4.156   0.225   5.972  0.0497 -0.4962  0.5120
13749WAT      O55701   5.794   5.637   3.908  0.3190 -0.2508  0.2595
13749WAT     H155702   5.836   5.660   3.835 -0.1046 -0.0598  0.0718
13749WAT     H255703   5.839   5.679   3.971  2.5454 -2.7528  0.5019
13749WAT    EPW55704   5.807   5.647   3.907 -0.7175 -0.4764  0.6855
13750WAT      O55705   2.647   7.062   2.637  0.8465 -0.7682  0.4853
13750WAT     H155706   2.597   6.990   2.634  0.3954 -0.6765  3.0992
13750WAT     H255707   2.591   7.125   2.658  1.6764 -0.1963  1.0341
13750WAT    EPW55708   2.631   7.061   2.640  0.7469 -0.4951  0.4559
13751WAT      O55709   1.343   1.437   0.331  0.3238  0.2602 -0.2997
13751WAT     H155710   1.369   1.358   0.302  0.9681  0.9327 -1.6322
13751WAT     H255711   1.264   1.422   0.364  0.1978 -0.8462 -1.0575
13751WAT    EPW55712   1.335   1.423   0.332 -0.0104 -0.1348  0.2505
13752WAT      O55713   6.227   5.814   5.271 -0.2905 -0.0176  0.5905
13752WAT     H155714   6.209   5.808   5.357 -1.9638  0.1492  0.2889
13752WAT     H255715   6.175   5.880   5.245 -0.9830 -1.0832 -0.8317
13752WAT    EPW55716   6.216   5.823   5.280 -0.2273  0.2540  0.3568
13753WAT      O55717   6.256   7.318   5.410  0.0388 -0.0510  0.4653
13753WAT     H155718   6.287   7.280   5.482  0.0544  0.1323  0.5568
13753WAT     H255719   6.294   7.397   5.411  0.2233 -0.1355  0.1310
13753WAT    EPW55720   6.266   7.324   5.421  0.2344 -0.0823  0.5521
13754WAT      O55721   1.892   1.497   4.130  0.0897  0.0593  0.3637
13754WAT     H155722   1.942   1.428   4.148 -1.3241 -1.0695  0.1828
13754WAT     H255723   1.895   1.503   4.043 -2.4163 -1.9851 -0.0038
13754WAT    EPW55724   1.900   1.487   4.120  0.4603 -0.1858 -0.7552
13755WAT      O55725   2.980   7.206   3.630 -0.2872  0.3218 -0.3159
13755WAT     H155726   2.895   7.219   3.640 -0.4561 -1.1577  0.5975
13755WAT     H255727   2.987   7.166   3.553 -0.4887  0.0554 -0.1984
13755WAT    EPW55728   2.969   7.202   3.620 -0.2628  0.5162  0.1062
13756WAT      O55729   5.939   0.775   0.660  0.2497 -0.0846 -0.1976
13756WAT     H155730   5.895   0.704   0.635 -0.6229  0.0006  1.0254
13756WAT     H255731   5.894   0.840   0.623  0.2915 -0.0930 -0.2635
13756WAT    EPW55732   5.926   0.774   0.651 -0.1385 -0.0248 -0.4936
13757WAT      O55733   5.907   4.826   6.011  0.4019 -0.5658 -0.1126
13757WAT     H155734   5.846   4.883   6.035  0.0760 -0.2080 -1.6869
13757WAT     H255735   5.868   4.779   5.948  0.8700 -2.1309  0.7114
13757WAT    EPW55736   5.892   4.827   6.005 -0.1108  0.5848  0.2374
13758WAT      O55737   1.702   1.336   4.459  0.0632 -0.0422 -0.9162
13758WAT     H155738   1.643   1.293   4.508 -1.7630  1.8504 -1.2976
13758WAT     H255739   1.741   1.273   4.414 -1.4567 -1.4424 -0.3769
13758WAT    EPW55740   1.699   1.320   4.459 -0.3412 -0.5946 -0.1697
13759WAT      O55741   7.380   3.643   0.454  0.6917  0.4012  0.2496
13759WAT     H155742   7.400   3.562   0.427  1.6421  0.4464  0.7510
13759WAT     H255743   7.333   3.630   0.526  0.6370  0.2928  0.1945
13759WAT    EPW55744   7.376   3.629   0.460 -0.0413 -0.0017  0.8394
13760WAT      O55745   2.257   4.680   6.044 -0.5727  0.4296 -0.2093
13760WAT     H155746   2.237   4.637   5.971 -0.6691  3.7305 -2.3547
13760WAT     H255747   2.334   4.646   6.069 -0.6609 -0.9375 -1.6781
13760WAT    EPW55748   2.265   4.669   6.037  0.1405 -0.0465 -0.2958
13761WAT      O55749   2.561   0.547   5.480  0.1093 -0.5141 -0.5808
13761WAT     H155750   2.606   0.548   5.554 -0.5502  0.5516 -0.1743
13761WAT     H255751   2.551   0.462   5.463  0.4738 -0.7663  0.4146
13761WAT    EPW55752   2.566   0.534   5.488 -0.3268 -0.2721  0.9069
13762WAT      O55753   6.702   3.680   3.738  0.2874 -0.3914  0.2121
13762WAT     H155754   6.671   3.601   3.758  1.9583 -0.6378  2.1484
13762WAT     H255755   6.718   3.716   3.816 -1.7884  2.4968 -0.5433
13762WAT    EPW55756   6.700   3.673   3.753  0.3749  0.4829  0.0646
13763WAT      O55757   6.583   0.793   4.405 -0.6544  0.0417  0.3783
13763WAT     H155758   6.609   0.730   4.350 -1.0942  0.8114 -0.7720
13763WAT     H255759   6.532   0.751   4.462 -1.8744 -0.5051 -1.0377
13763WAT    EPW55760   6.579   0.777   4.405 -0.7116 -0.3216  0.3089
13764WAT      O55761   0.990   1.232   5.707 -0.4505 -0.2658 -0.3208
13764WAT     H155762   1.010   1.207   5.789 -0.5084  0.2184 -0.1571
13764WAT     H255763   0.902   1.237   5.709 -0.3903  0.9193 -0.0596
13764WAT    EPW55764   0.980   1.229   5.720  0.1295  0.0351  0.0583
13765WAT      O55765   3.769   3.546   0.621 -0.4609  0.4013 -0.2547
13765WAT     H155766   3.800   3.628   0.621  0.8857 -0.0973 -0.3993
13765WAT     H255767   3.725   3.541   0.546  3.0499 -0.2755 -2.4716
13765WAT    EPW55768   3.767   3.558   0.610  0.5939 -0.4711  0.4400
13766WAT      O55769   6.037  -0.006   6.179 -0.2328  0.2474 -0.1159
13766WAT     H155770   6.004  -0.012   6.098 -2.2959  0.6514  0.6306
13766WAT     H255771   6.014   0.074   6.205  1.7106  0.7032  0.3891
13766WAT    EPW55772   6.029   0.005   6.171  0.0502 -0.1793 -0.0296
13767WAT      O55773   0.476   1.997   4.854 -0.0472 -1.1723  0.0675
13767WAT     H155774   0.405   1.947   4.863 -1.7915  0.6819 -2.1087
13767WAT     H255775   0.451   2.074   4.886  2.0146 -1.1223  1.8193
13767WAT    EPW55776   0.462   2.001   4.860  0.4500  0.5188 -0.1906
13768WAT      O55777   4.570   7.034   2.705 -0.1455  0.4763 -0.0063
13768WAT     H155778   4.531   7.086   2.646  0.7653  0.2394 -0.8496
13768WAT     H255779   4.505   6.985   2.736 -0.4496 -0.3615 -1.8369
13768WAT    EPW55780   4.555   7.035   2.701 -0.4867 -0.0211  0.1853
13769WAT      O55781   5.601   5.055   2.835 -0.2045 -0.9526 -1.0013
13769WAT     H155782   5.595   5.003   2.904 -0.0191 -2.1109 -1.8351
13769WAT     H255783   5.576   5.133   2.866 -0.5774 -1.5452  0.2482
13769WAT    EPW55784   5.596   5.059   2.849 -0.5202  0.4477  0.0202
13770WAT      O55785   5.782   5.967   1.632 -0.4191  0.5821  0.5067
13770WAT     H155786   5.751   6.043   1.661  0.4483  0.8676  0.7106
13770WAT     H255787   5.710   5.919   1.620 -1.0293  1.6515 -0.2780
13770WAT    EPW55788   5.767   5.971   1.635  0.1656 -0.3614  0.1258
13771WAT      O55789   0.457   3.434   3.978  0.6674 -0.2009  0.3841
13771WAT     H155790   0.443   3.487   4.046 -2.2926 -2.5003  1.7900
13771WAT     H255791   0.500   3.366   4.013  0.2810 -0.8167 -0.3078
13771WAT    EPW55792   0.461   3.432   3.993  0.9578 -0.2805  0.2430
13772WAT      O55793   3.701   2.439   6.582  0.1071 -0.3259  0.4426
13772WAT     H155794   3.673   2.363   6.550 -1.3806  0.4047 -0.0836
13772WAT     H255795   3.670   2.439   6.664  0.2583 -0.3579  0.4999
13772WAT    EPW55796   3.693   2.428   6.590  0.4500 -0.0331  0.0126
13773WAT      O55797   4.208   7.509   1.240 -0.2544  0.5827  0.0843
13773WAT     H155798   4.203   7.591   1.211  1.5583 -0.1766 -2.8524
13773WAT     H255799   4.130   7.476   1.221 -1.0175  1.5781  1.3371
13773WAT    EPW55800   4.196   7.516   1.233  0.4139  0.0461 -0.0399
13774WAT      O55801   5.726   7.136   0.935  0.2914 -0.1947 -0.1473
13774WAT     H155802   5.739   7.183   0.862 -0.3561 -1.5438 -1.1728
13774WAT     H255803   5.658   7.175   0.973  0.4622  0.3570 -0.3927
13774WAT    EPW55804   5.718   7.149   0.930  0.0330 -0.3117 -0.9517
13775WAT      O55805   1.490   5.025   7.596  0.7821  0.0103  0.3425
13775WAT     H155806   1.524   5.100   7.571 -0.0906  0.8145  1.4207
13775WAT     H255807   1.424   5.012   7.540 -0.6921  1.4153  1.6340
13775WAT    EPW55808   1.485   5.034   7.584  0.0412 -0.1446 -0.3305
13776WAT      O55809   2.607   4.432   5.209  0.1668  0.4058 -0.6120
13776WAT     H155810   2.681   4.452   5.168 -0.0934  3.4061  0.1250
13776WAT     H255811   2.556   4.402   5.145  1.2229  0.7003 -1.6309
13776WAT    EPW55812   2.610   4.431   5.194  0.0161 -0.0015  0.5338
13777WAT      O55813   0.434   1.388   7.419  0.6151  0.1358 -0.3167
13777WAT     H155814   0.364   1.440   7.420  1.2963  1.0877  0.1667
13777WAT     H255815   0.431   1.347   7.496 -0.3089 -1.1229 -0.9846
13777WAT    EPW55816   0.423   1.390   7.431 -0.7671 -0.2147 -0.0637
13778WAT      O55817   2.548   5.850   5.582  0.6211 -0.1646 -1.0136
13778WAT     H155818   2.561   5.816   5.503  0.5160 -1.1623 -0.6219
13778WAT     H255819   2.475   5.811   5.609 -1.4265  2.7446 -1.7965
13778WAT    EPW55820   2.539   5.839   5.575 -0.0721  0.3412  0.6573
13779WAT      O55821   5.613   6.665   4.844  0.0428  0.1136 -0.0505
13779WAT     H155822   5.544   6.633   4.886 -0.4965 -0.4387 -1.3081
13779WAT     H255823   5.631   6.739   4.888 -0.4661 -0.4454  1.1396
13779WAT    EPW55824   5.606   6.671   4.857  0.0327 -0.2157 -0.4169
13780WAT      O55825   3.677   3.491   1.152  0.1613  0.1013  0.3407
13780WAT     H155826   3.724   3.462   1.219  0.2419 -0.5068  0.0258
13780WAT     H255827   3.735   3.499   1.088  0.2308  1.4096  0.5387
13780WAT    EPW55828   3.692   3.488   1.152 -0.0541 -0.0462 -0.1552
13781WAT      O55829   6.861   0.176   6.028 -0.0415  0.1918  0.3881
13781WAT     H155830   6.907   0.144   5.961  1.5140  0.7746  1.1091
13781WAT     H255831   6.877   0.119   6.092 -3.3716 -1.6507 -0.2305
13781WAT    EPW55832   6.870   0.163   6.028 -0.5839  0.0670 -0.0021
13782WAT      O55833   0.918   5.119   4.536  0.5023 -0.3621 -0.1708
13782WAT     H155834   0.937   5.185   4.483  1.4746 -0.3410  0.1888
13782WAT     H255835   0.850   5.148   4.582 -0.6395 -0.5417 -1.6643
13782WAT    EPW55836   0.911   5.133   4.535  0.1597 -0.5646 -0.3968
13783WAT      O55837   6.635   3.226   6.499 -0.3618  0.6943 -0.2313
13783WAT     H155838   6.707   3.177   6.505  0.2672  1.6147 -0.1575
13783WAT     H255839   6.570   3.169   6.514  0.4106  0.1167  1.0289
13783WAT    EPW55840   6.636   3.210   6.502 -0.4092 -0.1764 -0.1922
13784WAT      O55841   5.578   7.415   3.432 -0.5692  0.2727  0.0616
13784WAT     H155842   5.610   7.488   3.466 -0.9052 -0.7270  2.7894
13784WAT     H255843   5.519   7.443   3.375  0.3155  2.1086 -0.0108
13784WAT    EPW55844   5.574   7.430   3.429 -0.0536 -0.0179  0.1198
13785WAT      O55845   4.307   1.544   0.230  0.4775  0.7581  0.4905
13785WAT     H155846   4.365   1.549   0.295 -1.9089  0.8938  2.7376
13785WAT     H255847   4.277   1.625   0.222 -1.0612  0.2886  1.0511
13785WAT    EPW55848   4.311   1.557   0.238 -0.2889 -1.1563  0.2690
13786WAT      O55849   0.164   3.702   4.783 -0.1136 -0.8763  0.3505
13786WAT     H155850   0.092   3.734   4.820 -1.1927 -0.6237 -1.8173
13786WAT     H255851   0.138   3.627   4.747  0.6386 -0.7033 -0.6159
13786WAT    EPW55852   0.150   3.696   4.783 -0.4074  0.2621  0.2538
13787WAT      O55853   0.502   0.806   1.461 -0.1207  0.4008 -0.3271
13787WAT     H155854   0.589   0.811   1.463  0.0803 -1.9317 -0.3930
13787WAT     H255855   0.476   0.881   1.497  1.9334  0.4215  1.2887
13787WAT    EPW55856   0.511   0.818   1.467  0.7178 -0.0214  0.5056
13788WAT      O55857   2.223   5.327   4.087  0.1521  0.4839  0.3443
13788WAT     H155858   2.193   5.325   4.169 -1.9005  1.9780 -0.3041
13788WAT     H255859   2.224   5.243   4.063 -1.5611  0.2061  1.1293
13788WAT    EPW55860   2.219   5.314   4.095  0.4171 -0.0790  0.4103
13789WAT      O55861   3.013   4.813   5.314  0.0699  0.2509  0.4998
13789WAT     H155862   3.087   4.857   5.299  0.2818 -0.3000 -0.1365
13789WAT     H255863   2.964   4.869   5.359  0.5669  0.9087  0.2272
13789WAT    EPW55864   3.017   4.827   5.319  0.2871  0.4999 -0.6724
13790WAT      O55865   5.427   5.840   0.676 -0.6224  0.0321 -0.0797
13790WAT     H155866   5.378   5.770   0.694 -1.1903  0.2199 -0.8270
13790WAT     H255867   5.504   5.807   0.652 -1.1465 -0.3956 -1.2505
13790WAT    EPW55868   5.431   5.825   0.675  0.0988 -0.1260  0.5844
13791WAT      O55869   1.050   1.344   3.530 -0.1262 -0.3719  0.1355
13791WAT     H155870   0.969   1.350   3.499 -0.6366 -0.8625  1.2941
13791WAT     H255871   1.039   1.305   3.608  1.3886 -2.0791 -0.4226
13791WAT    EPW55872   1.036   1.339   3.537 -0.3738 -0.1700 -0.2854
13792WAT      O55873   6.822   2.042   6.770  0.2083 -0.2812  0.7606
13792WAT     H155874   6.786   2.103   6.822 -0.0306 -1.0058  1.4588
13792WAT     H255875   6.826   1.971   6.821 -0.6417 -1.1988 -0.3994
13792WAT    EPW55876   6.817   2.041   6.785 -0.2403  0.3024  0.1936
13793WAT      O55877   1.549   1.336   5.051  0.0334 -0.4396 -0.1686
13793WAT     H155878   1.601   1.300   5.111 -0.6994 -1.9429 -0.3841
13793WAT     H255879   1.474   1.350   5.094 -0.4043 -1.2656 -0.6282
13793WAT    EPW55880   1.545   1.333   5.066 -0.0211  0.1000  0.3692
13794WAT      O55881   4.596   2.298   4.102  0.5448 -0.5010  0.1605
13794WAT     H155882   4.659   2.345   4.139  1.3244 -0.3120 -1.3005
13794WAT     H255883   4.523   2.330   4.136  1.2151 -0.4170  1.5615
13794WAT    EPW55884   4.595   2.309   4.112 -0.2815  0.4664 -0.1602
13795WAT      O55885   5.671   7.588   3.807  0.0943 -0.4417  0.0661
13795WAT     H155886   5.707   7.613   3.731  0.8961 -1.2720  0.1640
13795WAT     H255887   5.720   7.520   3.832 -0.6056 -0.6274  0.9751
13795WAT    EPW55888   5.684   7.582   3.800  0.6919  0.2718 -0.2003
13796WAT      O55889   7.469   5.955   6.152 -0.2195 -0.4257 -0.1403
13796WAT     H155890   7.529   5.977   6.211  0.0308  0.6633 -0.7928
13796WAT     H255891   7.433   6.031   6.129 -0.2904 -0.8277 -1.4244
13796WAT    EPW55892   7.473   5.969   6.158 -0.6919 -0.6875  0.2609
13797WAT      O55893   1.094   7.159   4.485  0.4904 -0.2725  0.1450
13797WAT     H155894   1.054   7.217   4.435  1.4339  0.5275  0.3043
13797WAT     H255895   1.028   7.123   4.530 -0.2930 -0.5497 -1.1642
13797WAT    EPW55896   1.078   7.162   4.485  0.2421 -0.3397  0.2641
13798WAT      O55897   6.727   2.899   2.752 -0.3356 -0.2603 -0.1733
13798WAT     H155898   6.764   2.978   2.750  0.2992 -0.3031  3.2107
13798WAT     H255899   6.780   2.853   2.805 -0.8409 -2.9119 -1.7874
13798WAT    EPW55900   6.740   2.904   2.760 -0.8686 -0.3979  0.3962
13799WAT      O55901   5.816   5.422   5.008 -0.1275 -0.8819  0.3268
13799WAT     H155902   5.855   5.368   4.952 -0.2553 -0.2496 -0.3764
13799WAT     H255903   5.826   5.381   5.085  1.4788 -0.9815  0.1098
13799WAT    EPW55904   5.823   5.408   5.011 -0.1760 -0.6604 -0.2083
13800WAT      O55905   6.171   3.998   1.385 -0.4813 -0.4189 -0.4432
13800WAT     H155906   6.191   4.036   1.309  0.2639  0.1372  0.0037
13800WAT     H255907   6.087   4.019   1.397 -0.5224 -0.2556 -0.9709
13800WAT    EPW55908   6.162   4.007   1.376  0.5472 -0.5304  0.3437
13801WAT      O55909   7.546   6.176   7.058  0.2048  0.4780  0.0087
13801WAT     H155910   7.543   6.108   7.005 -1.0754 -1.5376  2.4466
13801WAT     H255911   7.466   6.178   7.094  1.4668  0.5756  3.0941
13801WAT    EPW55912   7.533   6.166   7.056 -0.0295 -0.4091  0.3810
13802WAT      O55913   7.388   1.932   2.149  0.5025 -0.5575  0.2026
13802WAT     H155914   7.432   1.943   2.224 -1.3248  1.2324  1.1333
13802WAT     H255915   7.305   1.921   2.175  0.0405 -1.6101 -1.5320
13802WAT    EPW55916   7.382   1.932   2.164 -0.7375 -0.7236  0.0558
13803WAT      O55917   0.257   2.375   7.618 -0.0766  0.2388  0.1421
13803WAT     H155918   0.203   2.382   7.549  0.2477 -0.7061 -0.2184
13803WAT     H255919   0.336   2.368   7.581 -0.0125 -1.5459  0.5496
13803WAT    EPW55920   0.260   2.375   7.602 -0.1423  0.5850  0.2954
13804WAT      O55921   0.974   3.183   6.566  0.6423 -0.9580 -0.1868
13804WAT     H155922   0.985   3.200   6.650  1.1114  0.4321 -0.5184
13804WAT     H255923   1.049   3.146   6.542  1.4635  0.8603 -0.5283
13804WAT    EPW55924   0.987   3.180   6.575  0.7882  0.4106  0.8519
13805WAT      O55925   6.307   0.231   5.974  0.1488 -0.6183  0.1901
13805WAT     H155926   6.232   0.276   5.975 -0.5301 -1.7373  1.3768
13805WAT     H255927   6.295   0.169   6.034  2.4178 -0.2077  1.1429
13805WAT    EPW55928   6.294   0.229   5.983  0.2461 -0.0408  0.2784
13806WAT      O55929   7.215   2.282   5.644  0.1470  0.1318  0.1077
13806WAT     H155930   7.271   2.309   5.705  1.1391  2.2807 -1.6178
13806WAT     H255931   7.153   2.344   5.644 -0.3775 -0.3805 -0.3914
13806WAT    EPW55932   7.214   2.295   5.653  0.1298 -0.1473  0.3708
13807WAT      O55933   5.123   1.553   3.076 -0.2402 -0.0166  0.4291
13807WAT     H155934   5.165   1.630   3.078  1.8813 -1.0766 -0.2853
13807WAT     H255935   5.097   1.543   3.158 -1.7087  2.0136  0.2860
13807WAT    EPW55936   5.126   1.563   3.088  0.3298 -0.6648 -0.3403
13808WAT      O55937   7.587   1.788   2.910 -0.6400 -0.1189  0.3922
13808WAT     H155938   7.598   1.819   2.991  0.4161 -1.8703  0.9558
13808WAT     H255939   7.504   1.761   2.910 -1.2716  1.6445  0.2042
13808WAT    EPW55940   7.576   1.789   2.922 -0.3052  0.0383  0.1796
13809WAT      O55941   2.141   5.760   7.118 -0.6151 -0.4197  0.2667
13809WAT     H155942   2.115   5.770   7.201  0.9718 -3.3160  1.2596
13809WAT     H255943   2.210   5.813   7.112 -1.5501  0.8423  0.3086
13809WAT    EPW55944   2.147   5.769   7.129  0.0972  0.2627  0.2522
13810WAT      O55945   3.710   3.451   1.936  0.4774 -0.7058  0.6430
13810WAT     H155946   3.625   3.433   1.944  0.7313 -1.5243  1.6734
13810WAT     H255947   3.741   3.386   1.887  0.1485  0.7782 -1.7010
13810WAT    EPW55948   3.702   3.439   1.930  0.9285  0.1413 -0.2526
13811WAT      O55949   0.661   3.957   2.668 -0.1546 -0.1768  0.2782
13811WAT     H155950   0.638   3.873   2.680 -0.5993  0.1474  2.0055
13811WAT     H255951   0.713   3.973   2.736  0.8470  0.6581 -0.6464
13811WAT    EPW55952   0.665   3.947   2.680  0.7408  0.5149  0.0014
13812WAT      O55953   0.687   4.366   5.137 -0.1660 -0.3280 -0.3338
13812WAT     H155954   0.674   4.291   5.180  1.2242 -1.1733 -1.2895
13812WAT     H255955   0.623   4.418   5.165 -2.2335 -2.4157 -0.8941
13812WAT    EPW55956   0.676   4.362   5.147 -0.7341  0.0300 -0.1940
13813WAT      O55957   6.842   5.830   1.347  0.0099 -0.2487  0.2338
13813WAT     H155958   6.909   5.786   1.311 -0.1826  0.0654 -0.5298
13813WAT     H255959   6.815   5.777   1.411  0.4561 -0.7612  0.0091
13813WAT    EPW55960   6.848   5.815   1.351  0.2333  0.1074 -0.5046
13814WAT      O55961   2.887   2.255   5.796  0.3128 -0.3900  0.5529
13814WAT     H155962   2.963   2.225   5.823  0.5612 -0.1179  0.1721
13814WAT     H255963   2.854   2.189   5.749  0.6530 -0.2311  0.0907
13814WAT    EPW55964   2.893   2.241   5.793  0.3720  0.1360 -0.0762
13815WAT      O55965   5.130   4.823   3.862  0.4982  0.0062  0.9153
13815WAT     H155966   5.043   4.833   3.867  0.1965 -1.4391 -0.6089
13815WAT     H255967   5.158   4.901   3.834 -0.5476 -0.0414 -0.3657
13815WAT    EPW55968   5.121   4.836   3.859 -0.0994 -0.1021  0.6230
13816WAT      O55969   3.978   3.721   2.479 -0.0895  0.3131 -0.0201
13816WAT     H155970   3.978   3.671   2.551 -1.0587 -1.3453 -1.1120
13816WAT     H255971   3.967   3.664   2.414 -1.9571  1.9943 -1.3038
13816WAT    EPW55972   3.976   3.705   2.480  0.2969  0.5012  0.2249
13817WAT      O55973   1.401   1.868   1.349  0.0763  0.1504 -0.2120
13817WAT     H155974   1.392   1.863   1.262 -0.3927 -1.3487 -0.1024
13817WAT     H255975   1.378   1.950   1.367 -1.3287  0.0394 -1.3418
13817WAT    EPW55976   1.396   1.879   1.339 -0.3857  0.4685  0.4102
13818WAT      O55977   4.550   0.065   3.008  1.2056  0.2349 -0.7270
13818WAT     H155978   4.614   0.117   2.980  0.4877  0.8668 -1.2347
13818WAT     H255979   4.494   0.120   3.046  0.8867 -0.2838 -0.4342
13818WAT    EPW55980   4.551   0.080   3.009  0.7244 -0.1848  0.2671
13819WAT      O55981   3.374   1.982   1.121  0.3028  0.2861 -0.2600
13819WAT     H155982   3.297   1.942   1.134  2.1264 -2.9792  2.0661
13819WAT     H255983   3.382   2.034   1.191  1.0049 -1.0016  0.6674
13819WAT    EPW55984   3.364   1.984   1.133  0.3092  0.8622  0.5920
13820WAT      O55985   6.622   5.183   3.298  0.5552  0.4372  0.0781
13820WAT     H155986   6.550   5.171   3.250  1.4705 -1.2906 -1.0010
13820WAT     H255987   6.601   5.249   3.351 -0.8745  1.8332 -2.0388
13820WAT    EPW55988   6.608   5.191   3.299 -0.6051  0.1792  0.3828
13821WAT      O55989   3.816   2.425   5.695 -0.1513  0.4258  0.2496
13821WAT     H155990   3.729   2.433   5.690 -0.1963  1.5475  2.0570
13821WAT     H255991   3.830   2.340   5.681 -1.5503  0.1976  0.1283
13821WAT    EPW55992   3.805   2.414   5.692  0.2050 -0.3433 -0.0307
13822WAT      O55993   3.164   7.087   6.876  0.1748  0.0627 -0.2718
13822WAT     H155994   3.204   7.070   6.951 -0.5314  0.7400  0.2771
13822WAT     H255995   3.213   7.046   6.816  0.3257 -1.1422  0.6299
13822WAT    EPW55996   3.177   7.078   6.878 -0.1665 -0.0813 -0.4196
13823WAT      O55997   2.588   2.359   5.424 -0.0414  0.1523  0.1463
13823WAT     H155998   2.554   2.423   5.472  0.3906  1.3569 -1.1099
13823WAT     H255999   2.580   2.289   5.476 -0.3792  1.2231  1.6201
13823WAT    EPW56000   2.582   2.358   5.439  0.4969 -0.2046 -0.0739
13824WAT      O56001   0.196   1.919   4.536 -0.6016 -0.8242  0.5743
13824WAT     H156002   0.241   1.851   4.568 -0.0066 -0.7863 -0.1410
13824WAT     H256003   0.256   1.963   4.490 -1.5746 -1.3647 -1.3070
13824WAT    EPW56004   0.212   1.915   4.534 -0.6586  0.3447  0.0022
13825WAT      O56005   6.940   1.375   2.867 -0.1283  0.1610  0.6435
13825WAT     H156006   6.939   1.457   2.898 -0.4869  0.5026 -0.2226
13825WAT     H256007   6.857   1.350   2.873 -0.3804  0.5477 -0.7822
13825WAT    EPW56008   6.928   1.384   2.872 -1.0578 -0.2164  0.3360
13826WAT      O56009   2.488   6.770   3.426  0.1803  0.1773 -0.0733
13826WAT     H156010   2.561   6.814   3.405 -0.2637 -0.1713 -2.6139
13826WAT     H256011   2.443   6.828   3.473  0.5044  1.7937 -1.6289
13826WAT    EPW56012   2.492   6.785   3.430 -0.0740  0.1786 -0.2040
13827WAT      O56013   5.212   0.238   6.796  0.5752  0.2182  0.2118
13827WAT     H156014   5.135   0.249   6.836  0.6321  0.1144  0.3519
13827WAT     H256015   5.249   0.317   6.799  0.0113  0.5504 -0.8395
13827WAT    EPW56016   5.206   0.251   6.802 -0.5991  0.1971  0.2197
13828WAT      O56017   0.991   0.745   0.653 -0.4898 -0.4536 -0.7342
13828WAT     H156018   0.922   0.797   0.652 -0.5479 -0.5169 -2.5516
13828WAT     H256019   1.058   0.800   0.641  0.2658  0.0671  3.8850
13828WAT    EPW56020   0.991   0.761   0.651 -0.3713  0.4743  0.2033
13829WAT      O56021   3.504   6.822   5.230 -0.3863  0.2416 -0.1481
13829WAT     H156022   3.485   6.817   5.315 -0.5322  0.0467 -0.1915
13829WAT     H256023   3.475   6.901   5.207  0.1466  0.5133  0.1050
13829WAT    EPW56024   3.497   6.833   5.239  0.1475  0.2971 -0.3005
13830WAT      O56025   4.738   2.301   2.833  1.0102 -0.3577  0.5142
13830WAT     H156026   4.658   2.271   2.846  1.2567 -1.4037 -0.2527
13830WAT     H256027   4.789   2.248   2.879  1.3681 -0.5100 -0.0375
13830WAT    EPW56028   4.734   2.289   2.841  0.2627 -0.0260  0.0744
13831WAT      O56029   1.012   2.189   3.691 -0.5681 -0.5700  0.1810
13831WAT     H156030   0.963   2.261   3.681  2.3771  1.6697  0.4315
13831WAT     H256031   1.031   2.165   3.609 -0.2968 -0.0699  0.0917
13831WAT    EPW56032   1.008   2.196   3.677 -0.0613 -0.3149  0.2721
13832WAT      O56033   6.699   0.938   2.005  0.8815  0.7766  0.0742
13832WAT     H156034   6.702   0.962   2.089 -1.4560 -0.7804  0.7106
13832WAT     H256035   6.703   1.014   1.962  1.5149  1.6664  1.6077
13832WAT    EPW56036   6.700   0.953   2.011 -0.0256  0.1832 -0.2550
13833WAT      O56037   6.736   4.174   2.822  0.6113  0.7892 -0.0190
13833WAT     H156038   6.650   4.171   2.809  0.6962 -0.1445 -0.5074
13833WAT     H256039   6.769   4.139   2.749  1.3825  0.7442  0.3350
13833WAT    EPW56040   6.728   4.168   2.810 -0.0830 -0.2176 -0.1332
13834WAT      O56041   1.526   7.408   5.312 -0.7322  0.0106 -0.0362
13834WAT     H156042   1.457   7.392   5.261 -0.6131 -0.2818 -0.1052
13834WAT     H256043   1.594   7.400   5.258 -0.5991 -0.4164  0.1929
13834WAT    EPW56044   1.526   7.405   5.296  0.0552  0.4260  0.6542
13835WAT      O56045   3.346   0.426   1.983 -0.1244 -0.2779 -0.2262
13835WAT     H156046   3.398   0.360   2.008  0.4808  1.1793  2.8127
13835WAT     H256047   3.268   0.387   1.973  0.4355 -1.6376  0.3904
13835WAT    EPW56048   3.342   0.410   1.985 -0.7732  0.1536  0.5461
13836WAT      O56049   1.493   3.644   0.933 -0.4343  0.6878 -0.0996
13836WAT     H156050   1.490   3.593   0.861  0.9790 -1.1600  1.0432
13836WAT     H256051   1.410   3.652   0.956 -0.9406  1.4675 -2.0203
13836WAT    EPW56052   1.480   3.638   0.926  0.7986  0.3337 -0.2991
13837WAT      O56053   7.573   5.456   4.051  0.1406  0.3138 -0.1213
13837WAT     H156054   7.586   5.504   4.122  1.1131  0.4273 -0.3692
13837WAT     H256055   7.558   5.515   3.989  0.1241  0.2469 -0.1807
13837WAT    EPW56056   7.573   5.472   4.052 -0.3103  0.5091 -0.2754
13838WAT      O56057   6.086   6.433   5.227 -0.3123 -0.4572  0.1575
13838WAT     H156058   6.001   6.414   5.219 -0.0549 -2.0853  0.9256
13838WAT     H256059   6.088   6.520   5.220 -2.0490 -0.3700  0.2178
13838WAT    EPW56060   6.074   6.443   5.225  0.1077 -0.0761  0.3312
13839WAT      O56061   7.301   2.450   0.597  0.3604 -0.3230 -0.1811
13839WAT     H156062   7.336   2.507   0.653 -0.0483  0.2394 -0.4861
13839WAT     H256063   7.365   2.433   0.541 -0.0739  1.3892 -1.2679
13839WAT    EPW56064   7.315   2.456   0.597  0.3130 -0.1415 -0.3705
13840WAT      O56065   6.235   0.878   0.825 -0.3513 -0.3552 -0.3820
13840WAT     H156066   6.314   0.916   0.829 -0.5332  0.0460 -0.6590
13840WAT     H256067   6.188   0.932   0.776 -1.7925  1.1543  2.3984
13840WAT    EPW56068   6.240   0.891   0.819 -0.0089  0.2003  0.3193
13841WAT      O56069   1.258   7.471   7.311  0.2023 -0.1028 -0.1066
13841WAT     H156070   1.183   7.517   7.305  0.9699  1.0906 -1.2699
13841WAT     H256071   1.314   7.528   7.345  0.3943 -1.2790  1.6273
13841WAT    EPW56072   1.255   7.486   7.315 -0.7356  0.0414 -0.0634
13842WAT      O56073   0.770   5.872   0.382 -0.3226  0.2218 -0.1740
13842WAT     H156074   0.757   5.840   0.462 -1.3977 -0.6291 -0.6598
13842WAT     H256075   0.719   5.822   0.331  0.3199  0.7530 -1.3914
13842WAT    EPW56076   0.761   5.860   0.386 -0.9876  0.4947 -0.0988
13843WAT      O56077   1.095   2.948   7.117  0.3646  0.0242  0.5280
13843WAT     H156078   1.131   2.875   7.087 -0.0600 -0.3192  0.8415
13843WAT     H256079   1.106   2.942   7.204 -1.7518 -0.8345  0.7965
13843WAT    EPW56080   1.102   2.936   7.126 -0.3886  0.0235 -0.2721
13844WAT      O56081   3.953   0.191   2.107 -0.0835 -0.2019 -0.1733
13844WAT     H156082   3.978   0.168   2.027  1.7482  0.8195  0.0564
13844WAT     H256083   3.904   0.262   2.093 -0.9450 -0.8361 -0.4599
13844WAT    EPW56084   3.949   0.198   2.093 -0.3090  0.5765 -0.2207
13845WAT      O56085   3.496   1.161   3.696  0.3618 -0.0706  0.3765
13845WAT     H156086   3.514   1.244   3.715 -0.0111 -0.1748  1.2455
13845WAT     H256087   3.554   1.116   3.743  0.4736 -0.3094  0.0140
13845WAT    EPW56088   3.507   1.167   3.706  0.3668 -0.3280 -0.2790
13846WAT      O56089   6.875   1.911   6.027  0.0675 -0.1837  0.2382
13846WAT     H156090   6.922   1.847   5.992 -1.2266 -0.4190 -1.1373
13846WAT     H256091   6.911   1.921   6.106  1.7762 -1.0023 -0.3862
13846WAT    EPW56092   6.887   1.903   6.034 -0.0734  0.1515 -0.0376
13847WAT      O56093   5.262   6.627   6.154  0.4462 -0.0889 -0.2160
13847WAT     H156094   5.260   6.653   6.070 -1.7368 -1.1744 -0.5646
13847WAT     H256095   5.218   6.689   6.196 -0.9480 -0.9286 -0.3680
13847WAT    EPW56096   5.255   6.640   6.147 -0.2550 -0.0724  0.6959
13848WAT      O56097   5.241   4.035   5.628  0.2025  0.0548  0.2120
13848WAT     H156098   5.234   4.097   5.567 -0.2656  0.5450  0.7448
13848WAT     H256099   5.237   4.080   5.703 -2.8662 -0.8276  0.6837
13848WAT    EPW56100   5.240   4.051   5.630  0.1125 -0.0309 -0.2634
13849WAT      O56101   4.637   0.680   3.480  0.2649 -0.2792  0.2430
13849WAT     H156102   4.558   0.704   3.509  1.0174  1.4545  0.9752
13849WAT     H256103   4.620   0.608   3.433 -1.6960 -0.1558  0.6686
13849WAT    EPW56104   4.623   0.673   3.477 -0.1299 -0.2637  0.1246
13850WAT      O56105   0.290   0.074   6.503 -0.0933 -0.2113 -0.4400
13850WAT     H156106   0.347   0.011   6.484 -0.9310 -1.7367  1.7552
13850WAT     H256107   0.335   0.127   6.556 -0.2832 -0.5960  0.1026
13850WAT    EPW56108   0.305   0.073   6.508 -0.1734 -0.1334  0.2987
13851WAT      O56109   6.057   2.689   3.162 -0.0473 -0.3288  0.2869
13851WAT     H156110   6.009   2.760   3.179  1.2910  0.1515  2.3743
13851WAT     H256111   6.102   2.712   3.091 -0.6457  0.3626  0.1125
13851WAT    EPW56112   6.057   2.703   3.154 -0.3836  0.0441 -0.1097
13852WAT      O56113   4.562   1.385   7.327  0.4455 -0.3571  0.1084
13852WAT     H156114   4.629   1.378   7.383  1.1147  2.7340 -0.1329
13852WAT     H256115   4.497   1.414   7.378  0.1902 -0.3195 -0.2401
13852WAT    EPW56116   4.562   1.388   7.343  0.4805 -0.4893 -0.0836
13853WAT      O56117   3.196   1.054   7.198 -0.3076  0.1212 -0.0830
13853WAT     H156118   3.276   1.061   7.162 -0.5802 -1.4422 -1.0925
13853WAT     H256119   3.210   1.074   7.282  1.0897  0.1544 -0.2938
13853WAT    EPW56120   3.210   1.058   7.205  0.5886  0.0404 -0.0579
13854WAT      O56121   4.775   0.383   0.581 -0.0583 -0.0122 -0.2254
13854WAT     H156122   4.788   0.461   0.617 -0.2272  0.2905 -0.7959
13854WAT     H256123   4.855   0.354   0.563  0.1235 -0.8069  1.6582
13854WAT    EPW56124   4.788   0.390   0.583 -0.5897 -0.1228 -0.2025
13855WAT      O56125   5.342   6.502   4.523 -0.1729 -0.3087 -0.2917
13855WAT     H156126   5.324   6.440   4.581  1.3664 -0.1756  0.3809
13855WAT     H256127   5.276   6.497   4.466 -2.1023 -0.0109  1.7772
13855WAT    EPW56128   5.330   6.492   4.523 -0.2213  0.1259  0.4900
13856WAT      O56129   5.110   1.047   2.781  0.3667  0.3039 -0.0691
13856WAT     H156130   5.079   1.068   2.702 -0.4655  1.7758  0.6085
13856WAT     H256131   5.041   1.015   2.823  0.0181  2.2557  0.9727
13856WAT    EPW56132   5.095   1.045   2.775 -0.1714  0.3470 -0.0129
13857WAT      O56133   5.152   1.354   3.713 -0.4198 -0.2502 -0.0152
13857WAT     H156134   5.100   1.417   3.683  0.6217  0.1727 -1.0024
13857WAT     H256135   5.221   1.398   3.743  0.7514 -0.9283 -1.5797
13857WAT    EPW56136   5.155   1.370   3.713 -0.0634 -0.1111 -0.1850
13858WAT      O56137   4.801   2.041   3.968 -0.6527  0.6813  0.4027
13858WAT     H156138   4.874   2.088   3.956 -0.3894  0.1323 -0.1485
13858WAT     H256139   4.827   1.959   3.955 -1.5023  0.5287 -0.3583
13858WAT    EPW56140   4.816   2.036   3.965 -0.4462 -0.5049 -0.3845
13859WAT      O56141   0.178   2.332   3.428 -0.1334  0.2485 -0.2009
13859WAT     H156142   0.248   2.295   3.392 -0.1955 -0.4364  0.3658
13859WAT     H256143   0.118   2.328   3.364  0.2822  0.6866 -0.6317
13859WAT    EPW56144   0.180   2.326   3.413 -0.0819 -0.2961  0.2499
13860WAT      O56145   7.102   6.016   6.876 -0.3072 -0.3554 -0.0266
13860WAT     H156146   7.090   5.931   6.892 -0.6458 -0.0213  1.8197
13860WAT     H256147   7.044   6.034   6.814 -0.6121 -1.3764 -0.0488
13860WAT    EPW56148   7.091   6.006   6.869  0.1359  0.2378 -0.2916
13861WAT      O56149   7.624   0.463   5.263  0.3426 -0.0577  0.4052
13861WAT     H156150   7.598   0.509   5.194 -1.6564 -1.1511  0.3548
13861WAT     H256151   7.550   0.440   5.302  1.3547 -1.2345  1.7612
13861WAT    EPW56152   7.610   0.466   5.259  0.2001 -0.4860  0.5475
13862WAT      O56153   2.173   7.216   3.407  0.5460 -0.2357  0.0119
13862WAT     H156154   2.128   7.149   3.374  3.1478 -1.8658 -0.5445
13862WAT     H256155   2.123   7.285   3.388 -0.5062 -1.6142 -2.9022
13862WAT    EPW56156   2.159   7.216   3.399 -0.0410  0.0122  0.0228
13863WAT      O56157   2.127   4.061   2.936 -0.0272 -0.3913  0.1808
13863WAT     H156158   2.139   4.147   2.940 -1.0772 -0.2702  1.3876
13863WAT     H256159   2.060   4.052   2.881  0.3885 -0.4781 -0.3149
13863WAT    EPW56160   2.119   4.072   2.928 -0.0432  0.6590 -0.4547
13864WAT      O56161   6.996   3.439   6.063  0.0535 -0.0514  0.5800
13864WAT     H156162   7.073   3.452   6.025  0.1734  0.0460  0.8552
13864WAT     H256163   7.012   3.450   6.148  0.1972 -2.0869  0.8660
13864WAT    EPW56164   7.009   3.442   6.070  0.5299  0.7841 -0.3655
13865WAT      O56165   0.488   6.263   0.426  0.2966 -0.0606  0.2013
13865WAT     H156166   0.455   6.343   0.415 -1.3278 -0.5384  1.1244
13865WAT     H256167   0.461   6.241   0.507 -2.1979 -2.7619 -1.1535
13865WAT    EPW56168   0.479   6.271   0.436 -0.2767 -0.1111 -0.5611
13866WAT      O56169   3.456   0.698   0.506 -0.8624  0.1914  0.0149
13866WAT     H156170   3.450   0.775   0.546 -2.7279 -0.4199  1.0152
13866WAT     H256171   3.404   0.707   0.436 -2.9743 -0.8186  1.3649
13866WAT    EPW56172   3.447   0.711   0.502  0.1050  0.2227 -0.1757
13867WAT      O56173   2.042   4.353   3.247  0.3857 -0.1699 -0.3312
13867WAT     H156174   2.011   4.272   3.255 -2.1727  0.6696 -1.0049
13867WAT     H256175   2.080   4.368   3.325  1.2755 -2.1084 -0.3436
13867WAT    EPW56176   2.043   4.344   3.260  0.6908 -0.1432  0.0838
13868WAT      O56177   1.550   1.203   5.936  0.4335 -0.6350  0.2349
13868WAT     H156178   1.506   1.194   6.011  2.7283 -0.7147  1.6722
13868WAT     H256179   1.591   1.127   5.927  1.2065 -0.1598 -0.3911
13868WAT    EPW56180   1.549   1.190   5.946  0.2742  0.0420  0.5975
13869WAT      O56181   5.307   6.476   0.534 -0.1828 -0.4246  0.1127
13869WAT     H156182   5.273   6.448   0.609 -0.6729 -0.8279 -0.2551
13869WAT     H256183   5.255   6.541   0.511  0.7909  0.6494  0.8225
13869WAT    EPW56184   5.294   6.481   0.542 -0.5619  0.4592 -0.5404
13870WAT      O56185   5.235   3.141   3.263 -0.0454 -0.0941 -0.2947
13870WAT     H156186   5.202   3.145   3.344  1.9849  1.1335  0.5608
13870WAT     H256187   5.221   3.221   3.231 -0.3160 -0.3995 -0.9686
13870WAT    EPW56188   5.228   3.154   3.270  0.1341 -0.3305  0.3923
13871WAT      O56189   6.454   1.765   1.138 -0.4302 -0.0357 -0.4971
13871WAT     H156190   6.385   1.754   1.191 -1.0271 -2.5736 -1.6955
13871WAT     H256191   6.421   1.807   1.070 -0.0355  1.6251  0.2779
13871WAT    EPW56192   6.439   1.770   1.136 -0.1749 -1.0356  0.1735
13872WAT      O56193   6.786   5.699   0.491  0.0402 -0.1461 -0.5896
13872WAT     H156194   6.726   5.637   0.476 -1.7488  1.3395  0.1087
13872WAT     H256195   6.753   5.769   0.452  1.1854  0.8035  0.1008
13872WAT    EPW56196   6.773   5.700   0.483  0.0910 -0.5958  0.4354
13873WAT      O56197   3.253   1.834   6.243 -0.0499 -0.0489 -0.1705
13873WAT     H156198   3.238   1.920   6.253  0.5514  0.0408  0.0336
13873WAT     H256199   3.231   1.801   6.321  0.5874  0.0555  0.0627
13873WAT    EPW56200   3.248   1.842   6.256 -0.1849  0.1416  0.2756
13874WAT      O56201   2.196   7.055   0.927  0.4891 -0.1368 -0.1223
13874WAT     H156202   2.179   7.030   0.846  0.3196 -0.9433  0.1441
13874WAT     H256203   2.239   6.986   0.961  2.9791  1.2230 -0.3202
13874WAT    EPW56204   2.200   7.041   0.920 -0.2656  0.1427  0.2442
13875WAT      O56205   0.251   4.035   5.537 -0.2931 -0.1131 -0.4843
13875WAT     H156206   0.233   3.951   5.548  1.3202 -0.2955  1.0216
13875WAT     H256207   0.335   4.042   5.557  0.3704  1.4008 -3.2602
13875WAT    EPW56208   0.261   4.024   5.541  0.0876  0.0606  0.3101
13876WAT      O56209   4.121   5.112   6.517 -0.4355  0.2556  0.9113
13876WAT     H156210   4.085   5.123   6.596  0.4553  0.3791  1.3109
13876WAT     H256211   4.117   5.191   6.481 -2.1767 -0.0931  0.2230
13876WAT    EPW56212   4.115   5.125   6.523  0.2595  0.2964 -0.1124
13877WAT      O56213   0.426   2.674   3.150  0.5054  0.0124  0.0704
13877WAT     H156214   0.387   2.743   3.113  0.0753 -1.0346 -1.5070
13877WAT     H256215   0.456   2.629   3.082  1.1437 -1.1645  1.1025
13877WAT    EPW56216   0.425   2.678   3.135  0.0055  0.3622 -0.7248
13878WAT      O56217   2.790   2.366   1.064 -0.3751 -0.3948 -0.5176
13878WAT     H156218   2.746   2.437   1.090  1.7793  0.9694 -0.3446
13878WAT     H256219   2.783   2.368   0.977 -0.3701  0.0348 -0.5121
13878WAT    EPW56220   2.783   2.377   1.055 -0.2259  0.2712 -0.5532
13879WAT      O56221   0.566   5.258   6.424 -0.1128 -0.3851  0.3085
13879WAT     H156222   0.602   5.333   6.448 -1.2547 -0.2688  1.7976
13879WAT     H256223   0.615   5.198   6.463  0.0489 -0.3660  0.1382
13879WAT    EPW56224   0.579   5.260   6.433 -0.5943 -0.1629  0.3482
13880WAT      O56225   0.595   1.575   6.773  0.6590 -0.6325  0.0859
13880WAT     H156226   0.592   1.515   6.836  1.1726 -1.1874 -0.4113
13880WAT     H256227   0.567   1.648   6.813 -0.0830 -1.2177  0.6622
13880WAT    EPW56228   0.590   1.577   6.788  0.5953 -0.6901 -0.0155
13881WAT      O56229   4.700   6.951   5.890 -0.7031 -0.4771  0.2126
13881WAT     H156230   4.726   7.033   5.905 -3.8681  0.7983 -0.5622
13881WAT     H256231   4.632   6.941   5.944 -1.1797 -2.1374 -0.6251
13881WAT    EPW56232   4.694   6.962   5.900  0.1777 -0.0797 -0.0391
13882WAT      O56233   6.040   5.231   1.733  0.1137  0.2360 -0.1105
13882WAT     H156234   5.975   5.289   1.743 -0.6057 -0.7364  1.2597
13882WAT     H256235   6.098   5.255   1.794 -0.0985 -0.3586  0.3294
13882WAT    EPW56236   6.039   5.243   1.744 -0.3270  0.4152 -0.0701
13883WAT      O56237   3.982   7.264   4.712  0.1857  0.5478 -0.1780
13883WAT     H156238   3.925   7.224   4.659  0.9519 -0.9014  0.0445
13883WAT     H256239   3.937   7.274   4.786  0.0119 -0.0419 -0.1966
13883WAT    EPW56240   3.967   7.260   4.715  0.2622 -0.4181 -0.7390
13884WAT      O56241   3.499   2.161   4.274  0.0379  0.2243 -0.2103
13884WAT     H156242   3.436   2.217   4.251 -1.0013 -0.8100  0.0231
13884WAT     H256243   3.534   2.198   4.345  0.4082  1.3250 -0.9431
13884WAT    EPW56244   3.495   2.175   4.281 -0.0361 -0.0533  0.6969
13885WAT      O56245   0.480   4.689   4.157 -0.0942  0.0755 -0.0846
13885WAT     H156246   0.546   4.692   4.100 -1.2640  0.8625 -1.4824
13885WAT     H256247   0.437   4.616   4.135 -0.2501  0.1067  0.1153
13885WAT    EPW56248   0.483   4.678   4.145 -0.5150  0.0439  0.4815
13886WAT      O56249   3.794   1.837   7.511 -0.5758 -0.1678 -1.0179
13886WAT     H156250   3.811   1.863   7.430 -1.1477  1.0169 -0.7797
13886WAT     H256251   3.779   1.912   7.554 -0.0092 -0.7490  0.2467
13886WAT    EPW56252   3.795   1.852   7.506 -0.3041  0.7851 -0.2359
13887WAT      O56253   6.116   2.026   2.902 -0.2049 -0.0165 -0.5983
13887WAT     H156254   6.186   1.982   2.931 -0.5747 -0.2734 -0.0911
13887WAT     H256255   6.114   2.097   2.953  1.2378  1.3746 -2.3374
13887WAT    EPW56256   6.126   2.030   2.914 -0.0306 -0.4290 -0.4470
13888WAT      O56257   0.709   0.968   4.843 -0.0471  0.1795 -0.5359
13888WAT     H156258   0.688   0.979   4.927  0.1676 -1.8062 -0.1682
13888WAT     H256259   0.794   0.949   4.845  0.1886  1.1138 -1.3090
13888WAT    EPW56260   0.718   0.967   4.856  0.2189 -0.4424 -0.4619
13889WAT      O56261   4.170   0.362   1.645 -0.5247  0.2789  0.1595
13889WAT     H156262   4.108   0.417   1.672  0.4367  1.5505 -0.1279
13889WAT     H256263   4.242   0.411   1.646  0.3462 -0.9670 -0.1948
13889WAT    EPW56264   4.171   0.378   1.649 -0.8183 -0.2925  0.0663
13890WAT      O56265   0.236   1.931   3.472  0.1207  0.0328  0.4341
13890WAT     H156266   0.267   1.856   3.502  1.0841 -0.3546 -1.3566
13890WAT     H256267   0.152   1.914   3.457  0.0567 -0.3081  1.1448
13890WAT    EPW56268   0.228   1.917   3.474 -0.6084 -0.1315 -0.1348
13891WAT      O56269   5.491   0.939   5.483  0.0351 -0.6612  0.0372
13891WAT     H156270   5.538   1.012   5.483 -0.2764 -0.4537 -0.4842
13891WAT     H256271   5.505   0.906   5.404  1.6512 -2.1510  0.8722
13891WAT    EPW56272   5.500   0.945   5.471 -0.4091  0.2525  0.1786
13892WAT      O56273   1.272   4.265   4.577  0.3840  0.3524  0.5338
13892WAT     H156274   1.293   4.319   4.643  0.3673 -0.7089  1.4305
13892WAT     H256275   1.256   4.189   4.617  1.1979 -0.5360 -0.7796
13892WAT    EPW56276   1.273   4.262   4.593 -0.2111 -0.4113 -0.1123
13893WAT      O56277   0.183   6.381   5.017 -0.6433 -0.1293  0.4931
13893WAT     H156278   0.159   6.332   4.948  1.2391  0.0505 -0.3548
13893WAT     H256279   0.266   6.402   4.999 -0.5916  1.2186  2.0996
13893WAT    EPW56280   0.192   6.377   5.004 -0.3652  0.1618 -0.0088
13894WAT      O56281   1.186   7.420   3.002 -0.3789 -0.0810 -0.7763
13894WAT     H156282   1.208   7.459   2.927  0.5830  1.2850  0.1686
13894WAT     H256283   1.116   7.465   3.029  0.3144  0.5780 -0.0274
13894WAT    EPW56284   1.179   7.433   2.995 -0.3999  0.5098 -0.0126
13895WAT      O56285   6.688   1.342   0.623 -1.0130 -0.3948 -0.2001
13895WAT     H156286   6.627   1.358   0.683  0.0201 -2.0458  1.3906
13895WAT     H256287   6.653   1.374   0.550 -3.1387  0.0375  0.9156
13895WAT    EPW56288   6.674   1.349   0.621 -0.1315 -0.0371 -0.2919
13896WAT      O56289   6.818   2.307   2.574  0.0944  0.2590 -0.2968
13896WAT     H156290   6.893   2.266   2.554 -0.9490 -0.8614 -2.2291
13896WAT     H256291   6.844   2.386   2.601  1.9636 -0.1111 -0.8815
13896WAT    EPW56292   6.833   2.313   2.575  0.4614  0.4433 -0.2336
13897WAT      O56293   4.710   7.511   5.659 -0.0385 -0.5320  0.2488
13897WAT     H156294   4.683   7.431   5.682  0.6899 -1.4766 -1.9128
13897WAT     H256295   4.791   7.498   5.631  0.1987  1.0282  0.1227
13897WAT    EPW56296   4.718   7.497   5.658 -0.0044  0.1382 -0.1853
13898WAT      O56297   2.094   6.890   2.754 -0.1252 -0.1650 -0.3676
13898WAT     H156298   2.053   6.815   2.737 -0.9347  0.4599 -1.3135
13898WAT     H256299   2.048   6.924   2.820  1.8929 -1.7184  2.0204
13898WAT    EPW56300   2.081   6.884   2.761  1.1329 -0.1944 -0.0665
13899WAT      O56301   0.509   2.866   2.669  0.3102  0.0314 -0.0421
13899WAT     H156302   0.562   2.890   2.603 -1.1943  2.0800 -0.6160
13899WAT     H256303   0.475   2.791   2.642 -0.2304  0.8060 -1.6260
13899WAT    EPW56304   0.512   2.859   2.655 -0.1154  0.4492 -0.1150
13900WAT      O56305   2.044   2.991   7.088  0.3913  0.0393  0.2279
13900WAT     H156306   1.977   2.938   7.106 -0.1977  0.7308  0.1391
13900WAT     H256307   2.091   2.945   7.031  0.5608 -0.8770  1.0767
13900WAT    EPW56308   2.041   2.976   7.082 -0.1064 -0.5520  0.2189
13901WAT      O56309   4.795   1.110   5.311 -0.0277  0.5140 -0.4668
13901WAT     H156310   4.864   1.065   5.340  0.5358  0.4905 -1.7707
13901WAT     H256311   4.831   1.175   5.265 -0.8710  0.2441 -1.5376
13901WAT    EPW56312   4.810   1.113   5.309 -0.2802  0.3169  0.1262
13902WAT      O56313   4.460   0.985   2.010  0.5958  0.8813 -0.4797
13902WAT     H156314   4.495   0.908   2.033  0.0748  0.8618  0.2777
13902WAT     H256315   4.423   0.968   1.933 -0.5015  0.0488  0.1883
13902WAT    EPW56316   4.460   0.971   2.002 -0.2852 -0.2086 -0.4340
13903WAT      O56317   5.648   0.413   1.767 -0.2660 -0.2467 -0.2060
13903WAT     H156318   5.718   0.360   1.764 -1.5608 -2.0207 -0.4324
13903WAT     H256319   5.585   0.362   1.800 -1.9464  0.7130 -1.7732
13903WAT    EPW56320   5.649   0.398   1.771  0.2126 -0.3504 -0.1800
13904WAT      O56321   2.028   2.321   1.657  0.1205  0.7109 -0.4923
13904WAT     H156322   2.068   2.360   1.590  2.7366  0.7175  0.9440
13904WAT     H256323   2.089   2.269   1.690 -1.6649 -0.6938  0.8068
13904WAT    EPW56324   2.043   2.319   1.652  0.0241 -0.0604  0.2275
13905WAT      O56325   5.620   0.411   6.887  0.8959 -0.3974 -0.0562
13905WAT     H156326   5.649   0.331   6.869 -0.4398 -0.3890 -2.6397
13905WAT     H256327   5.534   0.402   6.885  0.6576  0.5908  2.4578
13905WAT    EPW56328   5.612   0.398   6.884 -0.2926 -0.3096  0.0883
13906WAT      O56329   6.100   5.915   4.277 -0.1178  0.0353  0.2516
13906WAT     H156330   6.156   5.865   4.232 -0.3977  0.5820 -0.7251
13906WAT     H256331   6.112   5.995   4.244 -2.3810 -0.0356 -0.9285
13906WAT    EPW56332   6.110   5.919   4.266 -0.8204  0.2593 -0.1194
13907WAT      O56333   0.803   2.102   0.512  0.0167 -0.5798 -0.4924
13907WAT     H156334   0.886   2.084   0.536  0.4995  0.1206 -1.5572
13907WAT     H256335   0.778   2.028   0.473 -0.4070 -1.3371  1.0982
13907WAT    EPW56336   0.812   2.088   0.510 -0.1720 -0.2341  0.0520
13908WAT      O56337   2.849   4.988   5.467 -0.2643 -0.0047  0.5741
13908WAT     H156338   2.881   5.034   5.535  3.8405 -1.7978  0.1483
13908WAT     H256339   2.864   5.041   5.399 -2.5197  0.9433  0.7160
13908WAT    EPW56340   2.856   5.003   5.467 -0.2838  0.4137 -0.2992
13909WAT      O56341   0.248   7.099   7.240 -0.3879 -0.2074 -0.1305
13909WAT     H156342   0.269   7.021   7.208  0.7409  0.7018 -1.7806
13909WAT     H256343   0.212   7.140   7.172  0.2632  1.1408  0.2911
13909WAT    EPW56344   0.246   7.093   7.225 -0.1152 -0.3830  0.0129
13910WAT      O56345   3.142   5.666   3.670 -0.1615 -0.2126 -0.0359
13910WAT     H156346   3.121   5.666   3.585 -0.9638  1.6977  0.1144
13910WAT     H256347   3.220   5.626   3.673 -0.5872 -1.2253 -1.5142
13910WAT    EPW56348   3.150   5.660   3.658 -0.7034  0.6162 -0.2759
13911WAT      O56349   0.920   3.579   0.495  0.3986 -0.2596 -0.2270
13911WAT     H156350   0.952   3.654   0.464 -0.0807  0.0727  0.0621
13911WAT     H256351   0.967   3.518   0.454  0.5538  0.1919 -0.7330
13911WAT    EPW56352   0.932   3.581   0.484 -0.3739 -0.6644 -0.2237
13912WAT      O56353   3.573   0.694   1.536  0.8533 -0.1927 -0.0401
13912WAT     H156354   3.571   0.635   1.472  2.6282 -0.5403  0.1724
13912WAT     H256355   3.524   0.658   1.598 -3.5182  1.4932 -2.1480
13912WAT    EPW56356   3.566   0.680   1.536 -0.4651 -0.6836  0.3206
13913WAT      O56357   3.084   3.034   6.038 -0.2006 -0.1699  0.0772
13913WAT     H156358   3.092   2.956   6.076 -0.8066 -0.0441  0.4855
13913WAT     H256359   3.005   3.029   6.000  0.3626 -0.2703 -1.1280
13913WAT    EPW56360   3.073   3.021   6.038 -0.3990 -0.1702  0.1922
13914WAT      O56361   7.641   6.761   6.918 -0.1382  0.6899  0.2795
13914WAT     H156362   7.563   6.721   6.912  0.1012  0.2467  0.0877
13914WAT     H256363   7.691   6.716   6.863 -0.1821  2.0632 -0.9396
13914WAT    EPW56364   7.637   6.748   6.909  0.3123 -0.0546 -0.8366
13915WAT      O56365   1.021   4.189   4.328 -0.3421  0.3112  0.3054
13915WAT     H156366   1.047   4.270   4.308 -0.8552  0.8104  1.5703
13915WAT     H256367   1.059   4.140   4.267 -2.8460  1.8182 -2.7346
13915WAT    EPW56368   1.031   4.194   4.316 -0.4593 -0.4289  0.4604
13916WAT      O56369   6.526   6.303   1.856  0.2883 -0.5046  0.4148
13916WAT     H156370   6.567   6.344   1.790  0.2753  1.3096  1.4733
13916WAT     H256371   6.570   6.328   1.926 -2.0225  0.8364  1.5142
13916WAT    EPW56372   6.538   6.313   1.856  0.3851 -0.0507  0.6187
13917WAT      O56373   5.891   6.714   7.146  0.5136 -0.1354  0.5637
13917WAT     H156374   5.931   6.784   7.178  1.3249 -0.4077  0.1729
13917WAT     H256375   5.956   6.657   7.133  0.1852 -0.1790 -1.1433
13917WAT    EPW56376   5.906   6.716   7.149 -0.1398 -0.1905 -0.3020
13918WAT      O56377   0.009   2.329   1.291  0.0937 -0.5584 -0.0956
13918WAT     H156378   0.081   2.374   1.270 -1.4433  2.6546  0.9555
13918WAT     H256379   0.035   2.278   1.357  1.5401 -0.0163 -0.2193
13918WAT    EPW56380   0.024   2.328   1.297 -0.3758 -0.0868  0.1898
13919WAT      O56381   3.951   4.600   1.364 -0.4519  0.0982  0.8418
13919WAT     H156382   4.038   4.604   1.360 -0.2571 -0.8875  2.8464
13919WAT     H256383   3.936   4.551   1.434 -2.6444 -0.9058 -0.2430
13919WAT    EPW56384   3.962   4.594   1.374  0.3537  0.5899 -0.7528
13920WAT      O56385   5.466   2.642   3.530  0.2587  0.5087 -0.2145
13920WAT     H156386   5.424   2.718   3.544  1.2306  1.2147 -0.9628
13920WAT     H256387   5.543   2.654   3.570 -0.1174 -0.6666  0.9183
13920WAT    EPW56388   5.471   2.655   3.538  0.0902  0.0030  0.1965
13921WAT      O56389   5.021   6.798   5.663 -0.1217 -0.2303 -0.4224
13921WAT     H156390   4.998   6.821   5.744  0.7975 -0.2756 -0.1325
13921WAT     H256391   4.953   6.750   5.635 -0.4574 -0.1971  0.3113
13921WAT    EPW56392   5.008   6.794   5.671  0.1709 -0.0995  0.7465
13922WAT      O56393   2.786   6.821   2.386  0.9738  0.0605  0.2070
13922WAT     H156394   2.789   6.860   2.308 -0.4143  3.9497  1.8753
13922WAT     H256395   2.837   6.871   2.436 -1.1623  0.0269  2.6160
13922WAT    EPW56396   2.794   6.834   2.381 -0.3743  0.2949 -0.1527
13923WAT      O56397   4.002   0.186   3.820  0.1204  0.1630 -0.3271
13923WAT     H156398   3.925   0.199   3.783  0.3371  0.9492 -0.5235
13923WAT     H256399   4.020   0.102   3.802 -0.9838 -0.2198  0.3131
13923WAT    EPW56400   3.994   0.175   3.812 -0.0640 -0.0958  0.1657
13924WAT      O56401   0.862   0.386   0.697  0.4494 -0.3845  0.3149
13924WAT     H156402   0.944   0.412   0.708  0.1600  0.5836  0.2739
13924WAT     H256403   0.815   0.457   0.716 -0.3277 -0.5877 -0.7528
13924WAT    EPW56404   0.867   0.400   0.701  0.2272  0.4983 -0.3738
13925WAT      O56405   0.245   2.630   1.462  0.1344 -0.4828  0.3024
13925WAT     H156406   0.295   2.564   1.489 -0.2640 -0.6862  0.5456
13925WAT     H256407   0.168   2.592   1.444 -0.6515  0.1780  2.0927
13925WAT    EPW56408   0.241   2.615   1.463 -0.1701  0.3771 -0.5618
13926WAT      O56409   4.631   1.675   1.422 -0.3702  0.1153 -0.2762
13926WAT     H156410   4.661   1.747   1.383 -1.1597  0.3828 -0.4002
13926WAT     H256411   4.697   1.619   1.413 -0.0941  0.5320 -0.9929
13926WAT    EPW56412   4.645   1.677   1.415  0.7110  0.1364 -0.4314
13927WAT      O56413   6.609   7.349   0.231 -0.2018  0.6131  0.2771
13927WAT     H156414   6.533   7.361   0.271 -1.1484  0.9498 -1.5569
13927WAT     H256415   6.621   7.422   0.185  1.2334  0.5633  0.5026
13927WAT    EPW56416   6.600   7.361   0.230 -0.0123  0.4802  0.1151
13928WAT      O56417   6.298   3.885   7.277  0.1290  0.3703  0.1180
13928WAT     H156418   6.277   3.875   7.193  0.2386 -1.5435  0.2879
13928WAT     H256419   6.242   3.833   7.319 -1.1980  2.7248  1.4460
13928WAT    EPW56420   6.287   3.876   7.271 -0.1919 -0.8770 -0.3296
13929WAT      O56421   5.761   7.225   1.418 -0.1982 -0.4397 -0.4682
13929WAT     H156422   5.797   7.252   1.493 -1.0092 -0.5181 -0.0371
13929WAT     H256423   5.725   7.298   1.386 -0.0038 -0.4422 -0.6923
13929WAT    EPW56424   5.761   7.240   1.424 -0.3268  0.3451 -0.0123
13930WAT      O56425   1.808   7.413   1.195 -0.1763  0.0990 -0.6994
13930WAT     H156426   1.791   7.486   1.239  1.1222  0.5459 -0.9004
13930WAT     H256427   1.842   7.441   1.120  0.6517 -0.7113 -0.6485
13930WAT    EPW56428   1.810   7.428   1.190  0.3224 -0.6375  0.2452
13931WAT      O56429   2.733   3.711   7.155  0.2256 -0.4874  0.4375
13931WAT     H156430   2.782   3.668   7.098  1.0620  1.0057 -0.0269
13931WAT     H256431   2.661   3.731   7.110  0.3298 -0.4130  0.3044
13931WAT    EPW56432   2.729   3.707   7.140  0.1018  0.0362  0.0898
13932WAT      O56433   2.199   7.082   3.976 -0.4914 -0.2548  0.2647
13932WAT     H156434   2.166   7.154   4.011  1.3583  0.6777  0.2381
13932WAT     H256435   2.217   7.031   4.045  1.0967  0.6579  0.5706
13932WAT    EPW56436   2.197   7.085   3.991  0.1620 -0.2829  0.2483
13933WAT      O56437   1.242   1.433   6.521 -0.6180 -0.1675  0.5404
13933WAT     H156438   1.263   1.517   6.507  2.7597 -0.9308  0.1900
13933WAT     H256439   1.200   1.436   6.598 -1.2313  1.8873  0.2002
13933WAT    EPW56440   1.239   1.446   6.531 -0.2474 -0.1435 -0.1535
13934WAT      O56441   7.333   4.423   6.211 -0.2117  0.0612 -0.4411
13934WAT     H156442   7.378   4.485   6.252 -0.5650  1.1147 -1.5831
13934WAT     H256443   7.392   4.385   6.159 -0.0193 -0.5237  0.1825
13934WAT    EPW56444   7.348   4.426   6.209  0.4106  0.2943  0.5218
13935WAT      O56445   6.609   5.666   7.221 -0.3311 -0.3361 -0.1312
13935WAT     H156446   6.534   5.624   7.234 -0.0654 -0.5023  0.9258
13935WAT     H256447   6.594   5.745   7.255 -0.5090  0.1280 -1.2482
13935WAT    EPW56448   6.596   5.672   7.228  0.2852  0.2002 -0.1138
13936WAT      O56449   4.903   6.446   6.592  0.2930 -0.6957 -0.3462
13936WAT     H156450   4.912   6.518   6.641  0.1890  0.2078 -1.6025
13936WAT     H256451   4.828   6.459   6.550  0.0466 -1.7692 -0.2734
13936WAT    EPW56452   4.893   6.459   6.593 -0.2899 -0.3013 -0.4596
13937WAT      O56453   5.851   5.447   6.685 -0.6889  0.3246  0.1049
13937WAT     H156454   5.795   5.390   6.649 -2.3139  0.4595  2.2048
13937WAT     H256455   5.929   5.414   6.665 -1.5373 -0.9027 -1.3889
13937WAT    EPW56456   5.854   5.433   6.677  0.4848  0.1818 -0.3409
13938WAT      O56457   5.957   1.108   0.998  0.2523  0.1289  0.4563
13938WAT     H156458   5.885   1.058   0.996 -0.5291  1.2305  0.0703
13938WAT     H256459   6.009   1.066   1.054 -0.8148 -0.5516  0.9838
13938WAT    EPW56460   5.954   1.094   1.006 -0.1269  0.1186  0.4862
13939WAT      O56461   2.983   6.811   5.064 -0.3669 -0.8741  0.0351
13939WAT     H156462   3.054   6.857   5.041 -0.1692 -2.1412 -2.2547
13939WAT     H256463   3.011   6.762   5.130  0.0217  0.6442  1.0665
13939WAT    EPW56464   2.998   6.811   5.070  0.7096  0.0031 -0.3339
13940WAT      O56465   0.051   4.652   2.745  0.0229 -0.1996 -0.1809
13940WAT     H156466   0.043   4.703   2.674  0.7241 -0.3415 -0.3725
13940WAT     H256467   0.020   4.702   2.810  0.3734  0.3402 -0.4205
13940WAT    EPW56468   0.045   4.667   2.744  0.2564 -0.5566  0.1192
13941WAT      O56469   7.237   1.243   6.665 -0.0287  0.0588  0.1336
13941WAT     H156470   7.202   1.314   6.629  1.3310 -0.2637 -2.0057
13941WAT     H256471   7.181   1.222   6.729 -1.7672  1.5793 -0.8143
13941WAT    EPW56472   7.224   1.250   6.669 -0.0161  0.0398 -0.2112
13942WAT      O56473   7.429   6.622   4.979 -0.3068 -0.3247 -0.1566
13942WAT     H156474   7.405   6.653   5.057  1.6012  2.0419 -0.3707
13942WAT     H256475   7.367   6.652   4.925 -1.2831 -1.4232  0.3135
13942WAT    EPW56476   7.416   6.631   4.983  0.2885  0.7699  0.0591
13943WAT      O56477   1.527   1.356   0.928  0.5870 -0.3271  0.2991
13943WAT     H156478   1.456   1.307   0.938  0.2119  0.5361  2.4951
13943WAT     H256479   1.500   1.421   0.876 -0.6667  0.6373  2.0404
13943WAT    EPW56480   1.512   1.359   0.921 -0.3174  0.0797 -0.0136
13944WAT      O56481   4.680   1.396   3.445 -0.3100  0.5803  0.1534
13944WAT     H156482   4.666   1.470   3.489 -0.8074 -0.3944  1.7171
13944WAT     H256483   4.686   1.335   3.508  0.7633 -0.6225 -1.0294
13944WAT    EPW56484   4.679   1.398   3.461  0.9029 -0.2468 -0.1265
13945WAT      O56485   2.936   0.556   7.330  0.3027 -0.2862 -0.1663
13945WAT     H156486   2.974   0.479   7.344  3.6938  1.2923  0.2577
13945WAT     H256487   2.952   0.572   7.246  1.0718  0.6440  0.1446
13945WAT    EPW56488   2.944   0.547   7.319 -0.5281 -0.1942 -0.5913
13946WAT      O56489   1.717   3.594   6.756  0.7388 -0.4326 -0.4282
13946WAT     H156490   1.683   3.644   6.693  0.2135 -0.0280  0.1712
13946WAT     H256491   1.803   3.600   6.742  0.9450  2.8996  1.2378
13946WAT    EPW56492   1.725   3.602   6.745  0.1009  0.2982  0.3384
13947WAT      O56493   5.628   5.189   2.220  0.6150  0.2099 -0.1567
13947WAT     H156494   5.614   5.275   2.213 -0.5741  0.1747  1.2789
13947WAT     H256495   5.586   5.156   2.152 -1.0413  0.6221  0.6160
13947WAT    EPW56496   5.620   5.197   2.209 -1.0019  0.5939 -0.0204
13948WAT      O56497   2.022   7.511   1.598  0.1563  0.9115  0.6025
13948WAT     H156498   2.095   7.472   1.625 -0.1783 -0.8941 -0.8667
13948WAT     H256499   2.040   7.596   1.604  2.4336  0.5245  0.1277
13948WAT    EPW56500   2.035   7.518   1.603  0.9448  0.0498  0.0233
13949WAT      O56501   4.603   6.726   5.169 -0.3511 -0.2631 -0.0262
13949WAT     H156502   4.679   6.766   5.180 -0.8707  1.3028 -1.5725
13949WAT     H256503   4.547   6.776   5.214 -1.1676  1.5129 -2.7626
13949WAT    EPW56504   4.606   6.739   5.177 -0.5352  0.1322  0.0329
13950WAT      O56505   0.084   7.135   5.285 -0.1062  0.0509 -0.3371
13950WAT     H156506   0.054   7.134   5.203 -1.5983  0.3383  0.1742
13950WAT     H256507   0.027   7.086   5.328  0.4827  0.1749  0.6071
13950WAT    EPW56508   0.071   7.128   5.279 -0.1730  0.4022  0.9058
13951WAT      O56509   6.332   4.133   3.284  0.5967  0.4619  0.1789
13951WAT     H156510   6.379   4.114   3.355 -0.5335  1.3379  1.2115
13951WAT     H256511   6.307   4.215   3.298 -2.2769 -0.3369  0.3423
13951WAT    EPW56512   6.335   4.142   3.297  0.1143  0.3577 -0.1195
13952WAT      O56513   2.324   0.096   3.501 -0.8220 -0.4673 -0.0747
13952WAT     H156514   2.305   0.014   3.526 -2.3548 -0.4379 -1.0339
13952WAT     H256515   2.393   0.086   3.449  1.2021 -0.7341  2.4598
13952WAT    EPW56516   2.332   0.082   3.497 -0.4826  0.5616 -0.6071
13953WAT      O56517   1.551   1.597   5.941 -0.0350 -0.2140 -0.2386
13953WAT     H156518   1.473   1.631   5.922 -0.2721 -0.1262  0.8596
13953WAT     H256519   1.548   1.518   5.904 -0.9113 -0.4719  0.3525
13953WAT    EPW56520   1.539   1.590   5.933  0.0966  0.0795 -0.3159
13954WAT      O56521   1.031   4.213   6.496 -0.3495 -0.3162 -0.4334
13954WAT     H156522   1.086   4.224   6.562  0.2473  2.7459 -1.2656
13954WAT     H256523   0.956   4.246   6.526 -0.7417 -1.1346 -0.5019
13954WAT    EPW56524   1.028   4.220   6.510 -0.6281 -0.2538  0.4597
13955WAT      O56525   4.992   1.487   3.502 -0.1128  0.0404  0.2295
13955WAT     H156526   5.042   1.551   3.470  0.4060  0.2274  1.3496
13955WAT     H256527   4.917   1.495   3.458  0.2030  0.9492 -0.1621
13955WAT    EPW56528   4.989   1.497   3.491 -0.0100  0.5571  0.1631
13956WAT      O56529   0.170   5.122   6.015  0.3004  0.0876 -0.0147
13956WAT     H156530   0.122   5.091   5.949 -0.2323 -2.1483  1.2863
13956WAT     H256531   0.252   5.102   5.993  0.1668 -0.2364 -0.2302
13956WAT    EPW56532   0.175   5.114   6.002 -0.2071  0.7811 -0.1435
13957WAT      O56533   6.088   5.303   6.666 -0.9079 -0.3227 -0.1330
13957WAT     H156534   6.146   5.346   6.617  0.3073 -0.8690  0.7831
13957WAT     H256535   6.071   5.232   6.618 -0.2844 -0.4986 -0.1029
13957WAT    EPW56536   6.094   5.299   6.651  0.0379 -0.2484  0.0223
13958WAT      O56537   6.655   2.453   0.359  0.1405  0.8738  0.3491
13958WAT     H156538   6.643   2.368   0.373 -3.3347  1.2656  0.7462
13958WAT     H256539   6.704   2.478   0.427 -0.5694 -0.5057  1.4239
13958WAT    EPW56540   6.660   2.444   0.371 -0.4023  0.5434 -0.2703
13959WAT      O56541   2.213   1.861   5.711 -0.3020  0.3328  0.5087
13959WAT     H156542   2.154   1.918   5.740  0.1457  0.1885  1.7556
13959WAT     H256543   2.289   1.899   5.730  0.0249  0.2916 -0.6283
13959WAT    EPW56544   2.216   1.875   5.718 -0.0654  0.3975  0.3280
13960WAT      O56545   4.627   7.045   0.990  0.0725  0.0023  0.0020
13960WAT     H156546   4.577   7.113   0.968 -1.2119 -1.1160 -0.7117
13960WAT     H256547   4.609   7.033   1.075  1.5186  1.4839  0.5657
13960WAT    EPW56548   4.617   7.054   0.999  0.3608 -0.7236  0.8719
13961WAT      O56549   3.378   7.259   2.237 -0.5874  0.4103 -0.2100
13961WAT     H156550   3.416   7.186   2.206  0.3384 -0.2023  2.2089
13961WAT     H256551   3.377   7.247   2.323 -2.4702  2.3167  0.1212
13961WAT    EPW56552   3.383   7.246   2.245  0.1741  0.4135  0.1773
13962WAT      O56553   1.444   6.398   6.337 -0.9785  0.2241  0.1001
13962WAT     H156554   1.442   6.339   6.401  0.6006  1.4778  1.4197
13962WAT     H256555   1.516   6.378   6.293 -0.5431  1.0045  0.4341
13962WAT    EPW56556   1.454   6.387   6.340 -0.0331 -0.1952  0.6697
13963WAT      O56557   1.759   2.199   5.767  0.0791  0.7274 -0.2809
13963WAT     H156558   1.783   2.282   5.766 -0.9257  1.0702 -2.5344
13963WAT     H256559   1.710   2.191   5.695  0.9420 -2.0324 -0.6831
13963WAT    EPW56560   1.755   2.210   5.757 -0.4657  0.3095 -0.0938
13964WAT      O56561   2.509   4.416   0.592  0.4252 -0.7537 -0.4861
13964WAT     H156562   2.422   4.426   0.589  0.3428 -0.9935  0.5274
13964WAT     H256563   2.521   4.372   0.666  1.5473  1.1173  0.5258
13964WAT    EPW56564   2.498   4.411   0.603  0.0878  0.0613  0.5673
13965WAT      O56565   3.057   6.784   3.464  0.0889  0.3763 -0.5417
13965WAT     H156566   3.077   6.708   3.428  0.7109 -0.0792  0.7048
13965WAT     H256567   3.054   6.766   3.550  3.2610  2.3477  0.1368
13965WAT    EPW56568   3.059   6.770   3.471 -0.5462 -0.0117  0.4513
13966WAT      O56569   6.922   6.231   2.579 -0.0556 -0.2510  0.0791
13966WAT     H156570   7.006   6.227   2.603  1.0271  1.1665 -2.9504
13966WAT     H256571   6.889   6.294   2.629  1.5555  1.3190 -0.7258
13966WAT    EPW56572   6.930   6.240   2.590 -0.0066 -0.0207  0.3141
13967WAT      O56573   4.193   6.313   3.286  0.1529 -0.2773 -0.3324
13967WAT     H156574   4.240   6.268   3.344  0.8062  1.3772  0.4818
13967WAT     H256575   4.242   6.312   3.214  0.6248 -0.0245 -0.0154
13967WAT    EPW56576   4.207   6.306   3.284  0.2129 -0.4343  0.0486
13968WAT      O56577   7.069   1.454   1.718 -0.8289  0.0220  0.2374
13968WAT     H156578   7.028   1.504   1.659  1.7462  2.7671  0.5116
13968WAT     H256579   7.108   1.512   1.770  3.6244 -2.1694 -0.2037
13968WAT    EPW56580   7.069   1.470   1.717 -0.2051 -0.3284  0.3638
13969WAT      O56581   0.958   6.905   1.725 -0.3490 -0.0364 -0.3049
13969WAT     H156582   1.042   6.889   1.741 -0.5894  0.2975  1.4711
13969WAT     H256583   0.919   6.827   1.735 -0.3015 -0.1210 -0.7704
13969WAT    EPW56584   0.964   6.891   1.729  0.7703 -0.0988  0.0019
13970WAT      O56585   1.593   5.869   0.157 -0.4978 -0.4835 -0.6707
13970WAT     H156586   1.579   5.795   0.113 -2.0415 -0.2981 -0.5413
13970WAT     H256587   1.532   5.868   0.219 -0.1312  0.5975 -0.2674
13970WAT    EPW56588   1.582   5.858   0.159  0.0976  0.0020  0.2873
13971WAT      O56589   1.077   7.433   6.972  0.0284 -0.1141 -0.2636
13971WAT     H156590   1.063   7.488   7.038  1.2728  0.9445 -0.8634
13971WAT     H256591   1.014   7.453   6.915  1.9570  2.6028 -1.6515
13971WAT    EPW56592   1.065   7.444   6.974  0.3374  0.8586 -0.1123
13972WAT      O56593   3.484   5.999   5.973  0.2062 -0.1315 -0.0538
13972WAT     H156594   3.529   5.933   6.010  0.2163 -2.0400 -3.1090
13972WAT     H256595   3.514   6.000   5.891 -2.2152  1.4655 -1.0076
13972WAT    EPW56596   3.495   5.989   5.966 -0.5381  0.2741 -0.0799
13973WAT      O56597   3.166   7.514   2.930 -0.2890  0.0709 -0.3457
13973WAT     H156598   3.187   7.544   2.851 -0.8168 -0.5802 -0.7392
13973WAT     H256599   3.180   7.583   2.982 -2.1602  1.2770 -1.3294
13973WAT    EPW56600   3.171   7.529   2.926  0.0624  0.8875 -1.1986
13974WAT      O56601   1.586   4.722   1.920  0.4438 -0.1466 -0.5341
13974WAT     H156602   1.560   4.649   1.960 -0.0166 -1.0078 -2.3125
13974WAT     H256603   1.639   4.693   1.857  0.8808  1.1295 -0.7829
13974WAT    EPW56604   1.590   4.707   1.917 -0.4439 -0.4743 -0.0865
13975WAT      O56605   5.856   4.829   3.156  0.5254 -0.2340 -0.3734
13975WAT     H156606   5.895   4.774   3.211 -0.5366  0.3974  1.0601
13975WAT     H256607   5.891   4.808   3.078  4.5298  0.9549  0.8579
13975WAT    EPW56608   5.867   4.818   3.152  0.3348 -0.1333  0.0125
13976WAT      O56609   0.336   7.463   5.882 -0.2891  0.0874 -0.2447
13976WAT     H156610   0.391   7.417   5.932 -0.0353  0.6399 -0.0125
13976WAT     H256611   0.313   7.406   5.820  1.5742  0.2055 -1.1195
13976WAT    EPW56612   0.341   7.447   5.880 -0.2722  0.3336  0.4754
13977WAT      O56613   3.767   2.504   1.516 -0.6537 -0.0305  0.0375
13977WAT     H156614   3.747   2.445   1.455 -0.8087 -0.6797  0.7017
13977WAT     H256615   3.691   2.519   1.555 -0.6024  0.5763 -0.0869
13977WAT    EPW56616   3.753   2.497   1.513  0.3696  0.1304 -0.1777
13978WAT      O56617   0.968   3.755   2.398  0.4790 -0.2455 -0.0154
13978WAT     H156618   0.973   3.825   2.345 -2.2659 -0.9284 -1.3279
13978WAT     H256619   0.974   3.688   2.343 -0.9646 -0.9946  0.7043
13978WAT    EPW56620   0.970   3.755   2.382 -0.1955  0.1412 -0.0726
13979WAT      O56621   1.326   7.181   3.437  0.2776 -0.4693 -0.3484
13979WAT     H156622   1.288   7.188   3.359  0.3750 -1.7304 -0.5186
13979WAT     H256623   1.311   7.099   3.460  1.3844 -0.4833  0.3731
13979WAT    EPW56624   1.318   7.170   3.429 -0.1070 -0.2234 -0.4024
13980WAT      O56625   1.354   6.951   5.276 -0.1739 -0.2821 -0.2969
13980WAT     H156626   1.396   6.943   5.353 -1.0790 -2.1308  0.0684
13980WAT     H256627   1.416   6.982   5.222  0.6460  0.4917  1.0273
13980WAT    EPW56628   1.370   6.954   5.280  0.3180  0.7543  0.1329
13981WAT      O56629   2.272   6.292   5.158  0.0413  0.0898  0.1210
13981WAT     H156630   2.213   6.265   5.099 -1.7723  0.4228  1.6596
13981WAT     H256631   2.341   6.241   5.145 -1.1616 -1.3536 -0.8090
13981WAT    EPW56632   2.273   6.281   5.148  0.1308 -0.2058 -0.2939
13982WAT      O56633   7.549   5.361   4.423  0.4034  0.2547  0.2560
13982WAT     H156634   7.526   5.351   4.507  1.3577 -2.3333  0.3014
13982WAT     H256635   7.482   5.326   4.379  1.0151 -0.7595  0.0946
13982WAT    EPW56636   7.536   5.354   4.429 -0.3439  0.4033  0.2395
13983WAT      O56637   1.230   6.935   3.536  0.1899  0.3755 -0.1973
13983WAT     H156638   1.298   6.891   3.567  1.0984  1.4923 -0.5024
13983WAT     H256639   1.180   6.874   3.499  0.9614 -0.4792  0.1498
13983WAT    EPW56640   1.233   6.920   3.535 -0.5656 -0.1401  0.0800
13984WAT      O56641   1.001   3.517   2.227 -0.5552 -0.0963  0.2279
13984WAT     H156642   1.000   3.482   2.306 -0.2095  1.9533  1.1959
13984WAT     H256643   1.084   3.540   2.215 -0.7075  0.1180 -0.4890
13984WAT    EPW56644   1.013   3.516   2.237  0.2848 -0.0532 -0.0085
13985WAT      O56645   0.541   5.643   7.253 -0.0371 -0.0499  0.1813
13985WAT     H156646   0.515   5.595   7.185 -0.2663  2.2169 -1.4368
13985WAT     H256647   0.623   5.664   7.232 -0.7230  2.2772 -0.4657
13985WAT    EPW56648   0.549   5.639   7.240 -0.7347 -0.8896  0.6794
13986WAT      O56649   1.280   4.284   3.276 -0.0468  0.0194  0.0654
13986WAT     H156650   1.237   4.285   3.352 -0.3726  1.5351 -0.1017
13986WAT     H256651   1.350   4.333   3.292  0.6192 -0.8008 -0.2395
13986WAT    EPW56652   1.284   4.291   3.290  0.6830  0.3469  0.0057
13987WAT      O56653   6.449   5.904   6.924  0.7593  0.7656 -0.3233
13987WAT     H156654   6.477   5.976   6.884 -0.3788  0.6067 -1.4801
13987WAT     H256655   6.421   5.854   6.858  0.9083 -0.4601  0.5150
13987WAT    EPW56656   6.449   5.907   6.908 -0.2771  0.1352  0.2271
13988WAT      O56657   6.648   0.725   3.868 -0.4025  0.0714  0.1892
13988WAT     H156658   6.566   0.733   3.837  0.2129 -0.7674 -1.8373
13988WAT     H256659   6.695   0.712   3.796  1.4030 -0.3879  1.4034
13988WAT    EPW56660   6.643   0.724   3.853  0.0381 -0.5368  0.3895
13989WAT      O56661   5.063   7.122   1.253 -0.1059 -0.1601  0.5878
13989WAT     H156662   5.045   7.201   1.285  0.6538  0.4239 -0.3830
13989WAT     H256663   5.122   7.090   1.309  2.6513  1.6025 -1.1139
13989WAT    EPW56664   5.069   7.129   1.266 -0.7967  0.1166 -0.1582
13990WAT      O56665   4.186   2.288   0.575  0.1431  0.1241 -0.0407
13990WAT     H156666   4.142   2.215   0.558  1.2827 -0.4406 -0.6709
13990WAT     H256667   4.144   2.349   0.529 -0.1230 -0.3612 -0.4408
13990WAT    EPW56668   4.174   2.286   0.565  0.2613 -0.1387  0.1584
13991WAT      O56669   4.534   5.747   2.204 -0.5546  0.0701  0.1130
13991WAT     H156670   4.549   5.662   2.190  1.2541  0.2375  0.8408
13991WAT     H256671   4.450   5.749   2.228 -0.5260 -1.5741  0.4661
13991WAT    EPW56672   4.524   5.735   2.206  0.2674 -0.2784 -0.1491
13992WAT      O56673   0.717   7.517   1.702  0.3008 -0.0565  0.1082
13992WAT     H156674   0.687   7.469   1.636  1.2952 -1.5660  0.6969
13992WAT     H256675   0.792   7.477   1.724 -0.9480 -0.9257  3.4603
13992WAT    EPW56676   0.724   7.504   1.695 -0.2297 -0.1517 -0.6922
13993WAT      O56677   2.033   2.605   3.261  0.3240 -0.0333 -0.3075
13993WAT     H156678   1.970   2.571   3.211 -0.9616  0.0354  1.1976
13993WAT     H256679   2.106   2.577   3.223 -0.6287 -1.5973 -1.1146
13993WAT    EPW56680   2.035   2.596   3.248 -0.1799 -0.1421 -0.4330
13994WAT      O56681   7.065   6.996   4.442 -0.1452  0.0551  0.3161
13994WAT     H156682   7.095   6.956   4.371  0.9661  0.7331  0.3869
13994WAT     H256683   7.129   7.052   4.464 -0.2316 -0.4760  2.1280
13994WAT    EPW56684   7.079   6.998   4.435 -0.3984  0.0807  0.4015
13995WAT      O56685   0.649   6.870   1.493  0.1322  0.2742  0.0002
13995WAT     H156686   0.682   6.925   1.434 -1.8334 -0.3894 -1.8724
13995WAT     H256687   0.657   6.792   1.454 -1.1987 -0.1886  0.5768
13995WAT    EPW56688   0.655   6.866   1.479 -0.5418 -0.0992  0.0878
13996WAT      O56689   5.063   5.218   2.516 -0.1076 -0.7844  0.2057
13996WAT     H156690   4.999   5.256   2.470 -1.2857 -2.6732  0.1756
13996WAT     H256691   5.134   5.234   2.468 -0.5996  0.9192 -0.0268
13996WAT    EPW56692   5.064   5.226   2.502  0.1420  0.2511  0.1064
13997WAT      O56693   4.245   5.509   0.610 -0.1254  0.2312 -0.1681
13997WAT     H156694   4.262   5.426   0.628 -1.7180 -0.2670 -0.8300
13997WAT     H256695   4.162   5.508   0.583  0.6199  1.5890 -2.9246
13997WAT    EPW56696   4.235   5.497   0.609  0.4486  0.0666 -0.2152
13998WAT      O56697   5.143   6.090   3.839  0.4774  0.0969 -0.1167
13998WAT     H156698   5.130   6.004   3.847  0.8096  0.0712  0.1761
13998WAT     H256699   5.151   6.117   3.921 -1.1008  0.6503 -0.1088
13998WAT    EPW56700   5.142   6.081   3.852  0.2974 -0.2995  0.7904
13999WAT      O56701   0.763   1.426   5.100 -0.1056  0.0432 -0.1485
13999WAT     H156702   0.836   1.473   5.097 -0.2130  0.4028  1.5599
13999WAT     H256703   0.789   1.349   5.131 -0.6447  0.8442  2.6120
13999WAT    EPW56704   0.778   1.422   5.104  0.0737 -0.0685  0.0632
14000WAT      O56705   7.538   2.187   0.807 -0.1208  0.0656 -0.0120
14000WAT     H156706   7.457   2.167   0.781  0.4773 -1.0404 -1.1206
14000WAT     H256707   7.525   2.238   0.876 -1.7685 -0.4591  0.1073
14000WAT    EPW56708   7.524   2.192   0.813  0.2951  0.0593  0.2918
14001WAT      O56709   5.840   2.595   2.084 -0.2793  0.0471  0.7277
14001WAT     H156710   5.788   2.569   2.149 -1.2453  0.8995  0.3160
14001WAT     H256711   5.918   2.606   2.123  0.2386 -3.3456  0.9529
14001WAT    EPW56712   5.844   2.593   2.099 -1.2456  0.3364  0.7309
14002WAT      O56713   0.283   6.568   2.899 -0.6809  0.1997  0.2548
14002WAT     H156714   0.357   6.602   2.931 -0.3565  0.9146 -1.1619
14002WAT     H256715   0.238   6.637   2.871 -0.6758 -0.3708 -1.3089
14002WAT    EPW56716   0.287   6.583   2.899  0.3945  0.0665  0.3754
14003WAT      O56717   6.364   0.582   6.050  0.5058  0.3059  0.1134
14003WAT     H156718   6.423   0.582   5.986  0.2982 -0.8107 -0.0892
14003WAT     H256719   6.413   0.575   6.122  0.6246 -0.6062 -0.0521
14003WAT    EPW56720   6.380   0.581   6.051  0.1350  0.6274  0.0056
14004WAT      O56721   3.846   1.842   6.499 -0.2638  0.1780  0.4143
14004WAT     H156722   3.881   1.922   6.497 -0.3073  0.1940 -1.1938
14004WAT     H256723   3.891   1.798   6.440 -1.6409 -0.3634 -0.2848
14004WAT    EPW56724   3.858   1.848   6.490  0.3886 -0.1199  0.2611
14005WAT      O56725   1.930   4.275   1.180 -0.1219 -0.1367 -0.4269
14005WAT     H156726   1.955   4.351   1.214 -0.1830  1.1021 -2.9441
14005WAT     H256727   1.957   4.216   1.239  0.0606  1.7777  1.5187
14005WAT    EPW56728   1.938   4.278   1.194 -0.9670 -0.2592 -0.0046
14006WAT      O56729   4.713   5.006   0.861 -0.1051 -0.1507  0.5708
14006WAT     H156730   4.688   4.967   0.787  0.0617  1.7228 -0.5427
14006WAT     H256731   4.796   5.029   0.846 -0.2358  0.7414  1.1031
14006WAT    EPW56732   4.722   5.004   0.848 -0.0131  0.7057  0.5955
14007WAT      O56733   4.226   0.506   1.117 -0.3430  0.3659 -0.6817
14007WAT     H156734   4.182   0.525   1.044 -0.4615  0.4439 -0.5896
14007WAT     H256735   4.174   0.535   1.181 -1.0059 -1.1436 -0.4908
14007WAT    EPW56736   4.212   0.513   1.115  0.0784 -0.3872 -0.4779
14008WAT      O56737   2.010   4.390   2.939  0.1825 -0.2456 -0.2449
14008WAT     H156738   1.995   4.395   3.025  0.1695 -1.7063 -0.1482
14008WAT     H256739   1.966   4.458   2.907  4.3235  3.7605  1.3380
14008WAT    EPW56740   2.001   4.401   2.947  0.1752  0.2507  0.5775
14009WAT      O56741   7.141   1.947   3.404  0.0376 -0.3001  0.5090
14009WAT     H156742   7.186   1.909   3.469 -1.4439  2.9373  3.7791
14009WAT     H256743   7.157   2.032   3.414 -0.3406  0.4630 -3.5389
14009WAT    EPW56744   7.150   1.954   3.415  0.0112  0.1323 -0.4475
14010WAT      O56745   3.115   5.539   6.566 -0.5789  0.0384  0.8761
14010WAT     H156746   3.121   5.452   6.561  0.1012  0.1116  0.2222
14010WAT     H256747   3.195   5.566   6.544 -1.2400  0.8879 -0.6247
14010WAT    EPW56748   3.128   5.530   6.562 -0.8623 -0.3058  0.0419
14011WAT      O56749   0.743   6.041   2.631 -0.4611  0.2209 -0.1892
14011WAT     H156750   0.732   5.961   2.663  3.2042 -0.3666  0.0028
14011WAT     H256751   0.744   6.092   2.702  0.7800 -0.1179  0.0569
14011WAT    EPW56752   0.741   6.037   2.646 -0.0270 -0.4657 -0.2622
14012WAT      O56753   4.402   7.110   2.015 -0.1911 -0.1428  0.8848
14012WAT     H156754   4.345   7.070   1.963  0.1706 -0.2015  0.5269
14012WAT     H256755   4.364   7.187   2.030  0.1987  0.3291 -0.3898
14012WAT    EPW56756   4.388   7.116   2.009 -0.5399 -0.2455  0.5036
14013WAT      O56757   2.362   6.062   1.933 -0.0353 -0.2376  0.2437
14013WAT     H156758   2.398   6.112   1.872 -0.9419  0.5694  0.3412
14013WAT     H256759   2.428   6.046   1.988  0.1996  1.1933  0.4177
14013WAT    EPW56760   2.377   6.067   1.932 -0.8621  0.2642  0.3086
14014WAT      O56761   2.198   6.344   5.421 -0.0836 -0.5032  0.1867
14014WAT     H156762   2.177   6.278   5.475 -0.2326  1.2324  2.4050
14014WAT     H256763   2.227   6.304   5.349  0.4015 -2.9763  1.6545
14014WAT    EPW56764   2.199   6.328   5.419 -0.3026 -0.6434  0.5297
14015WAT      O56765   5.349   6.240   0.372  0.1894  0.0785 -0.0395
14015WAT     H156766   5.358   6.311   0.423  0.4877  0.2819 -0.3731
14015WAT     H256767   5.358   6.174   0.429 -2.0403  0.2725  0.6321
14015WAT    EPW56768   5.352   6.240   0.388  0.4444  0.2292 -0.2784
14016WAT      O56769   4.759   6.758   1.364  0.0206 -0.2392  0.2464
14016WAT     H156770   4.719   6.753   1.441 -1.7945  0.7191 -0.5428
14016WAT     H256771   4.729   6.689   1.320 -1.1714  0.6910 -0.4821
14016WAT    EPW56772   4.749   6.747   1.369  0.3179  0.1355  0.2769
14017WAT      O56773   2.058   3.897   1.061  0.0522  0.3028 -0.5934
14017WAT     H156774   1.983   3.887   1.106  0.7337  0.1452  0.5509
14017WAT     H256775   2.119   3.900   1.123  0.9162  1.4817 -1.4465
14017WAT    EPW56776   2.056   3.896   1.077  0.5678 -0.5244  0.7322
14018WAT      O56777   2.301   7.483   2.767  0.8107 -0.4623  0.1628
14018WAT     H156778   2.357   7.536   2.807  0.5541  0.5974 -0.8501
14018WAT     H256779   2.276   7.428   2.831 -1.1941  2.4284  2.1011
14018WAT    EPW56780   2.306   7.483   2.782  0.3714  0.2195 -0.1983
14019WAT      O56781   2.947   4.482   1.837 -0.3523  0.5761 -0.5738
14019WAT     H156782   2.947   4.554   1.888  0.8995  0.3446 -0.2029
14019WAT     H256783   2.978   4.511   1.761  0.2064  0.4287 -0.4069
14019WAT    EPW56784   2.952   4.497   1.833  0.4241 -0.0457  0.4040
14020WAT      O56785   2.130   5.991   5.100 -0.1014 -0.2531 -0.8148
14020WAT     H156786   2.106   6.056   5.047  0.7274 -0.2874 -1.2384
14020WAT     H256787   2.212   6.010   5.120 -0.6445  0.2266  1.1691
14020WAT    EPW56788   2.138   6.004   5.095  0.0285 -0.6275 -0.0157
14021WAT      O56789   5.460   2.273   1.567 -0.1674  0.5896  0.7616
14021WAT     H156790   5.384   2.256   1.605 -0.0830  2.0862  1.6663
14021WAT     H256791   5.462   2.360   1.562  0.7128  0.5269 -0.8720
14021WAT    EPW56792   5.449   2.283   1.572 -0.8567  0.1387 -0.8639
14022WAT      O56793   3.686   3.847   1.974 -0.0445  0.2468  0.2507
14022WAT     H156794   3.608   3.884   1.960  0.2970  1.2083  0.7495
14022WAT     H256795   3.672   3.797   2.044 -0.0463  1.0170  0.8154
14022WAT    EPW56796   3.672   3.845   1.982 -1.2086  0.0390 -0.1951
14023WAT      O56797   0.566   5.152   0.876  0.2200 -0.3012  0.1113
14023WAT     H156798   0.498   5.099   0.865 -0.2895 -0.2306  2.3636
14023WAT     H256799   0.530   5.225   0.907  1.1782  0.3453 -0.2484
14023WAT    EPW56800   0.551   5.155   0.879 -0.5673  0.0707  0.7071
14024WAT      O56801   3.745   6.121   0.446  0.1700  0.0879  0.2777
14024WAT     H156802   3.798   6.150   0.382  0.3953 -1.4424 -0.2965
14024WAT     H256803   3.752   6.181   0.508  1.1786  0.8452 -0.5325
14024WAT    EPW56804   3.754   6.134   0.445 -0.1801 -0.3120 -0.0191
14025WAT      O56805   4.269   1.528   1.729  0.1276 -0.0843 -0.2552
14025WAT     H156806   4.247   1.572   1.658 -0.8736 -0.3312 -0.1077
14025WAT     H256807   4.288   1.448   1.699  1.7084  0.3356 -0.4902
14025WAT    EPW56808   4.269   1.523   1.714 -0.1807  0.4092  0.1742
14026WAT      O56809   5.651   0.782   4.283  0.0545  0.2308 -0.1746
14026WAT     H156810   5.697   0.754   4.352 -0.1968  1.6271  0.5920
14026WAT     H256811   5.626   0.862   4.306 -1.9360 -0.1135 -0.9889
14026WAT    EPW56812   5.654   0.790   4.296 -0.6007 -0.2053 -0.0836
14027WAT      O56813   5.376   1.934   1.300 -0.0409  0.0525 -0.4117
14027WAT     H156814   5.439   1.992   1.281 -0.4908  0.5875 -0.2836
14027WAT     H256815   5.403   1.899   1.376  0.6758 -0.5537 -0.9268
14027WAT    EPW56816   5.390   1.937   1.309 -0.3905  0.4388 -0.3357
14028WAT      O56817   7.510   5.255   1.903 -0.1151 -0.0505 -0.1494
14028WAT     H156818   7.467   5.206   1.961 -0.7865 -1.8270 -2.0146
14028WAT     H256819   7.579   5.207   1.883  0.9207  1.2236  0.2540
14028WAT    EPW56820   7.514   5.241   1.909  0.2733 -0.7318 -0.1807
14029WAT      O56821   0.242   5.333   6.297 -0.3259  0.4479 -0.2426
14029WAT     H156822   0.265   5.341   6.213  0.2288  1.0278 -0.0430
14029WAT     H256823   0.312   5.296   6.334 -0.1504  1.1751  0.1604
14029WAT    EPW56824   0.255   5.329   6.290 -0.1981 -0.2682  0.2303
14030WAT      O56825   1.781   5.595   2.370 -0.0987 -0.0671  0.1872
14030WAT     H156826   1.770   5.571   2.287  0.8549  0.9215 -0.2639
14030WAT     H256827   1.718   5.654   2.383  0.3252  0.4818 -0.1650
14030WAT    EPW56828   1.770   5.600   2.359  0.1080 -0.3041 -0.4225
14031WAT      O56829   1.979   1.017   0.024  0.7758  0.4484  0.6470
14031WAT     H156830   1.978   0.930   0.018  2.0625  0.4643 -0.4176
14031WAT     H256831   1.917   1.042  -0.031  0.3979  0.2000  0.9601
14031WAT    EPW56832   1.970   1.008   0.015  0.8071 -0.5006 -0.0535
14032WAT      O56833   3.470   1.493   6.500 -0.0065 -0.1634 -0.1128
14032WAT     H156834   3.462   1.503   6.413  2.3637  0.4675 -0.3292
14032WAT     H256835   3.403   1.442   6.521 -0.5024 -0.5485 -2.3748
14032WAT    EPW56836   3.459   1.487   6.490  0.3258 -0.0831 -0.3865
14033WAT      O56837   1.525   1.554   7.624  0.2949  0.7185  0.1689
14033WAT     H156838   1.554   1.604   7.559 -0.6736 -0.5603 -1.3283
14033WAT     H256839   1.570   1.479   7.614 -1.9008 -0.5683 -0.9601
14033WAT    EPW56840   1.536   1.550   7.613  0.3029 -0.2145 -0.1313
14034WAT      O56841   3.647   7.266   5.243  0.3429  0.1465  0.0324
14034WAT     H156842   3.700   7.215   5.291  0.6710 -0.8226 -1.3201
14034WAT     H256843   3.625   7.215   5.176  1.7477  2.1815 -2.1172
14034WAT    EPW56844   3.652   7.251   5.240 -0.9241  0.1197  0.1225
14035WAT      O56845   3.127   6.046   2.827  0.4218  0.1990  0.4726
14035WAT     H156846   3.051   6.083   2.804  1.0851  0.9798 -0.5412
14035WAT     H256847   3.187   6.098   2.792  1.4192 -1.3017 -0.1649
14035WAT    EPW56848   3.124   6.059   2.819 -0.5439  0.2503  0.0598
14036WAT      O56849   4.747   5.861   5.628  0.4541  0.3746 -0.1753
14036WAT     H156850   4.785   5.890   5.701  1.5103 -0.1972 -0.4796
14036WAT     H256851   4.810   5.867   5.569 -0.3625  0.7225 -1.0224
14036WAT    EPW56852   4.762   5.866   5.630  0.0065  0.0616  0.0740
14037WAT      O56853   2.909   6.166   5.914 -0.1007 -0.0739 -0.1628
14037WAT     H156854   2.922   6.120   5.987  0.5831 -0.3682 -0.4632
14037WAT     H256855   2.873   6.108   5.860 -1.4770  0.3790  0.2153
14037WAT    EPW56856   2.905   6.150   5.917  0.1460 -0.0172 -0.1864
14038WAT      O56857   1.305   1.404   5.185  0.5025 -0.1945 -0.3080
14038WAT     H156858   1.300   1.341   5.245 -1.4063  0.9891  0.8646
14038WAT     H256859   1.264   1.371   5.115 -0.3567 -0.3278  0.2527
14038WAT    EPW56860   1.298   1.390   5.183 -0.1630 -0.0173  0.7125
14039WAT      O56861   3.118   3.901   0.079  0.0854  0.3886 -0.6727
14039WAT     H156862   3.152   3.823   0.096 -2.9366 -1.0528 -0.4758
14039WAT     H256863   3.072   3.920   0.151  0.7294  2.3677 -0.7210
14039WAT    EPW56864   3.116   3.892   0.092  0.7949 -0.1843 -0.2704
14040WAT      O56865   2.258   3.912   1.284 -0.2129 -0.3939  0.1048
14040WAT     H156866   2.213   3.979   1.316 -1.1929 -1.8661  1.9900
14040WAT     H256867   2.341   3.938   1.289 -0.6398  1.5764 -1.5359
14040WAT    EPW56868   2.263   3.926   1.289  0.0940 -0.1505  0.2385
14041WAT      O56869   4.006   2.056   6.575  0.7100  0.3523  0.3547
14041WAT     H156870   3.997   2.038   6.660 -0.0568 -0.0244  0.2089
14041WAT     H256871   3.976   2.138   6.568  0.1859  0.1675  0.3594
14041WAT    EPW56872   4.000   2.066   6.586  0.3216 -0.2650 -0.1588
14042WAT      O56873   3.102   2.189   4.999 -0.1892 -0.3799 -0.2991
14042WAT     H156874   3.044   2.205   4.936  0.0598 -2.2715 -1.0793
14042WAT     H256875   3.080   2.109   5.027  0.8754 -0.3426  0.7292
14042WAT    EPW56876   3.090   2.179   4.994 -0.1184  0.1873  0.4316
14043WAT      O56877   7.005   0.399   0.959 -0.2915  0.0697 -0.0136
14043WAT     H156878   7.027   0.315   0.973 -0.3990 -0.0585 -0.5833
14043WAT     H256879   6.980   0.399   0.876  1.2667  0.9851 -0.5301
14043WAT    EPW56880   7.005   0.386   0.949 -0.1536  0.3332  0.0944
14044WAT      O56881   2.753   2.216   6.699 -0.0744  0.3834  0.4726
14044WAT     H156882   2.815   2.162   6.727  1.1840  1.2773 -0.4566
14044WAT     H256883   2.757   2.283   6.755 -0.0943  0.5157  0.3170
14044WAT    EPW56884   2.762   2.218   6.712 -0.1504  0.1543 -0.0431
14045WAT      O56885   7.279   0.339   7.252  0.0911 -0.1384  0.0777
14045WAT     H156886   7.285   0.399   7.188  0.9355  0.4963  0.7319
14045WAT     H256887   7.264   0.265   7.208 -0.8249  0.5087 -0.7594
14045WAT    EPW56888   7.277   0.337   7.236  0.0708  0.0195  0.4004
14046WAT      O56889   6.327   1.771   2.387 -0.0519 -0.5137 -0.6070
14046WAT     H156890   6.339   1.783   2.301  1.1610 -1.3696 -0.5852
14046WAT     H256891   6.383   1.827   2.424  0.5926 -1.2705 -0.4143
14046WAT    EPW56892   6.337   1.781   2.380  0.0781  0.1216  0.0752
14047WAT      O56893   1.915   3.643   2.299 -0.0274  0.2100  0.0979
14047WAT     H156894   1.830   3.638   2.277  0.5477  0.8140 -2.6596
14047WAT     H256895   1.920   3.719   2.342 -1.0646 -0.4897  1.5593
14047WAT    EPW56896   1.903   3.653   2.302  0.7805  0.0859 -0.1688
14048WAT      O56897   0.059   5.929   6.616 -0.4302 -0.1235 -0.1709
14048WAT     H156898  -0.008   5.877   6.636 -0.1129 -0.7969 -0.7889
14048WAT     H256899   0.118   5.913   6.678  0.3177 -1.7635 -1.2080
14048WAT    EPW56900   0.058   5.919   6.628  0.3853  0.3660  0.2031
14049WAT      O56901   1.091   5.249   5.287 -0.6171 -0.1397 -0.7974
14049WAT     H156902   1.089   5.179   5.339  0.1363  0.1142 -0.4167
14049WAT     H256903   1.159   5.234   5.235  0.1223  0.7400 -0.0963
14049WAT    EPW56904   1.101   5.236   5.287 -0.5380  0.0768  0.2234
14050WAT      O56905   2.335   6.849   5.456 -0.7858 -0.1596 -0.1594
14050WAT     H156906   2.294   6.861   5.380 -1.2307 -1.1820 -0.1024
14050WAT     H256907   2.349   6.763   5.458 -1.8006 -0.3344  1.4106
14050WAT    EPW56908   2.331   6.838   5.445  0.2288 -0.1409  0.0306
14051WAT      O56909   4.709   0.059   0.673  0.2513  0.6491  0.4024
14051WAT     H156910   4.639   0.096   0.636  0.5558  0.3284 -0.5174
14051WAT     H256911   4.753   0.127   0.707 -0.1710  0.9197  0.4134
14051WAT    EPW56912   4.705   0.075   0.673  0.0271 -0.6118  0.4249
14052WAT      O56913   7.198   0.430   5.875 -0.0991 -0.0522 -0.9759
14052WAT     H156914   7.155   0.387   5.937  0.0262  3.4019  1.8217
14052WAT     H256915   7.281   0.406   5.887 -0.2238 -0.2993 -0.5942
14052WAT    EPW56916   7.204   0.420   5.886  1.1160 -0.3224 -0.1333
14053WAT      O56917   4.875   0.999   3.660 -0.3045 -0.3134  0.5746
14053WAT     H156918   4.879   0.988   3.573  0.2253 -1.9509  0.7697
14053WAT     H256919   4.957   1.014   3.683 -0.5272  0.7151  0.7486
14053WAT    EPW56920   4.888   0.999   3.650  0.1441 -0.3510 -0.4193
14054WAT      O56921   1.790   1.377   3.253  0.2489 -0.1922 -0.1052
14054WAT     H156922   1.836   1.318   3.298  1.0224  0.7019  0.3040
14054WAT     H256923   1.842   1.395   3.185  0.3727  0.5888  0.1895
14054WAT    EPW56924   1.804   1.371   3.249  0.1650  0.2120  0.8126
14055WAT      O56925   1.233   4.435   4.363  0.3517  0.1838  0.0742
14055WAT     H156926   1.235   4.371   4.422 -0.8345 -0.5784 -0.6676
14055WAT     H256927   1.297   4.412   4.307  0.1442 -0.1952 -0.0152
14055WAT    EPW56928   1.243   4.422   4.363  0.2243 -0.7615  0.0508
14056WAT      O56929   2.994   0.431   3.675  0.0333 -0.1082 -0.4772
14056WAT     H156930   3.004   0.382   3.604 -0.4283 -1.5515  0.4185
14056WAT     H256931   2.921   0.400   3.711 -1.0540  2.1458 -0.5707
14056WAT    EPW56932   2.985   0.419   3.670  0.1759 -0.2978 -0.4435
14057WAT      O56933   6.180   4.891   0.521  0.3300 -0.7764  0.2608
14057WAT     H156934   6.142   4.897   0.443 -2.4900  2.5595  1.6499
14057WAT     H256935   6.116   4.865   0.574  1.0436  0.8118  2.0461
14057WAT    EPW56936   6.165   4.888   0.517  0.0332  0.6667  0.1768
14058WAT      O56937   6.617   6.705   5.992 -0.4487 -0.0657  0.5439
14058WAT     H156938   6.544   6.695   5.945 -0.3960  0.0296  0.4413
14058WAT     H256939   6.588   6.701   6.074 -0.3939 -1.2621  0.5152
14058WAT    EPW56940   6.602   6.703   5.997  0.5169  0.1941 -0.8246
14059WAT      O56941   5.099   5.517   2.281  0.3564 -0.4442 -0.3175
14059WAT     H156942   5.060   5.592   2.261 -0.8866 -0.9842 -0.0283
14059WAT     H256943   5.033   5.466   2.307  1.2776 -1.3764  0.2639
14059WAT    EPW56944   5.084   5.521   2.282  0.4372 -0.3792 -0.4459
14060WAT      O56945   4.644   5.471   7.013 -0.5487 -0.3096 -0.2824
14060WAT     H156946   4.709   5.413   7.007  0.3880  0.8075 -1.6613
14060WAT     H256947   4.574   5.422   7.026  0.4811 -1.6063  0.5936
14060WAT    EPW56948   4.644   5.455   7.014 -0.0196 -0.0620 -0.4371
14061WAT      O56949   1.151   0.257   7.215 -0.0710  0.5999  0.5248
14061WAT     H156950   1.087   0.305   7.182 -0.4029 -0.6980 -0.8033
14061WAT     H256951   1.121   0.176   7.211  2.5089 -0.4248 -2.5665
14061WAT    EPW56952   1.137   0.252   7.210  0.2444  0.7811  0.6577
14062WAT      O56953   0.656   6.109   5.475 -0.5332  0.6793 -0.3093
14062WAT     H156954   0.610   6.054   5.524  0.6250  0.4544  0.5749
14062WAT     H256955   0.689   6.165   5.533  1.3351  0.0707 -0.7206
14062WAT    EPW56956   0.654   6.109   5.491 -0.0469 -0.3942  0.0268
14063WAT      O56957   6.662   0.708   0.822 -0.5228 -0.0547 -0.3485
14063WAT     H156958   6.728   0.715   0.878 -1.2914  0.3660  0.5434
14063WAT     H256959   6.628   0.630   0.840 -0.7676  0.0782 -0.2311
14063WAT    EPW56960   6.667   0.697   0.833 -0.3094 -0.3137  0.3326
14064WAT      O56961   6.463   2.061   0.968  0.7603  0.0294 -0.1338
14064WAT     H156962   6.405   2.126   0.976  0.7476  0.1347 -0.9860
14064WAT     H256963   6.415   1.995   0.937  0.4022 -0.9647  2.3429
14064WAT    EPW56964   6.447   2.061   0.965  0.3256 -0.0302 -0.5975
14065WAT      O56965   6.707   2.393   3.810  0.2233 -0.5057  0.6862
14065WAT     H156966   6.643   2.334   3.812  0.4184 -0.7019  1.4291
14065WAT     H256967   6.735   2.395   3.892  0.2331  0.6114  0.6645
14065WAT    EPW56968   6.702   2.384   3.822  0.4142 -0.0123  0.0381
14066WAT      O56969   5.560   2.570   6.883  0.0339 -0.6448  0.4690
14066WAT     H156970   5.527   2.649   6.898 -0.5024 -0.8396  0.3594
14066WAT     H256971   5.644   2.577   6.906 -0.4299 -0.5690  2.2903
14066WAT    EPW56972   5.567   2.583   6.889 -0.2249  0.0106  0.7554
14067WAT      O56973   6.450   1.120   3.009  0.1304  0.8451 -0.0119
14067WAT     H156974   6.433   1.157   2.932  3.2961  0.5259 -0.9906
14067WAT     H256975   6.453   1.035   2.991 -0.5689  0.6196  0.8281
14067WAT    EPW56976   6.448   1.113   2.995 -0.1311 -0.5069 -0.5564
14068WAT      O56977   5.548   7.373   0.174 -0.1554  0.7449 -0.0652
14068WAT     H156978   5.496   7.412   0.232 -0.1034  0.5837  0.0896
14068WAT     H256979   5.580   7.304   0.217  0.7024  1.2052  0.0610
14068WAT    EPW56980   5.545   7.369   0.189  0.5072  0.9499 -0.7540
14069WAT      O56981   1.455   2.920   4.123  0.1133 -0.1344  0.3884
14069WAT     H156982   1.437   2.988   4.072  0.9151 -0.5866 -0.5120
14069WAT     H256983   1.526   2.885   4.088  0.6420 -0.5196  1.7604
14069WAT    EPW56984   1.463   2.925   4.111 -0.0556 -0.0594  0.6342
14070WAT      O56985   2.401   2.309   1.492 -0.6000 -0.6904  0.2129
14070WAT     H156986   2.465   2.358   1.458 -0.1172  0.0986  2.1229
14070WAT     H256987   2.419   2.229   1.462  1.3731 -0.5043  0.7096
14070WAT    EPW56988   2.413   2.304   1.483  0.1140  0.8800  0.2441
14071WAT      O56989   3.537   3.498   5.764 -0.2838 -0.8787 -0.0651
14071WAT     H156990   3.600   3.521   5.708  1.2381  0.0232  1.8891
14071WAT     H256991   3.490   3.440   5.719  1.4800 -1.0105 -1.8956
14071WAT    EPW56992   3.539   3.493   5.749  0.3514  0.8719 -0.1385
14072WAT      O56993   0.246   4.177   4.045  0.0942 -0.6593  0.1240
14072WAT     H156994   0.240   4.115   4.106 -1.0999  0.4701  1.2339
14072WAT     H256995   0.163   4.198   4.029  0.4692  1.3209  0.5197
14072WAT    EPW56996   0.233   4.171   4.052  0.0358 -0.5977 -0.5409
14073WAT      O56997   6.987   0.061   5.817  0.5178  0.9323 -0.0276
14073WAT     H156998   6.928   0.100   5.767  1.0217 -0.0840 -1.4593
14073WAT     H256999   6.968  -0.024   5.810  1.6901  0.6421  0.0761
14073WAT    EPW57000   6.975   0.054   5.809  0.0448  0.3188 -0.0147
14074WAT      O57001   6.912   4.926   3.274 -0.6464 -0.1908 -0.0139
14074WAT     H157002   6.856   4.940   3.340  0.2063  1.3605  0.4385
14074WAT     H257003   6.932   5.007   3.247  0.5856 -0.7378 -0.8261
14074WAT    EPW57004   6.907   4.940   3.280  0.2830 -0.1949 -0.3181
14075WAT      O57005   0.659   4.906   7.222 -0.0020 -0.3279 -0.1920
14075WAT     H157006   0.729   4.895   7.273  1.2896  2.0112 -1.2818
14075WAT     H257007   0.681   4.863   7.149 -0.8388 -1.7059  0.3376
14075WAT    EPW57008   0.673   4.898   7.219  0.2077  0.4029  0.0363
14076WAT      O57009   2.835   5.642   0.483  0.3863  0.6146 -0.1635
14076WAT     H157010   2.902   5.586   0.475  0.4086  0.4925  0.7416
14076WAT     H257011   2.814   5.661   0.401 -0.5776 -1.8442 -0.5626
14076WAT    EPW57012   2.842   5.637   0.470 -0.1644  0.6674 -0.0396
14077WAT      O57013   5.583   7.180   4.642  0.2714 -0.3292  0.4484
14077WAT     H157014   5.503   7.204   4.619 -0.2716 -1.1032  1.4786
14077WAT     H257015   5.611   7.246   4.692  1.4449  1.3509 -2.1939
14077WAT    EPW57016   5.576   7.193   4.646 -0.6969 -1.0268 -0.5525
14078WAT      O57017   2.705   4.329   3.378  0.1844  0.2598 -0.9405
14078WAT     H157018   2.705   4.397   3.323  2.4700  1.6619  0.5705
14078WAT     H257019   2.788   4.326   3.406 -0.9404  0.1934  2.9455
14078WAT    EPW57020   2.717   4.339   3.374 -0.3382  0.1158 -0.0623
14079WAT      O57021   2.194   2.519   6.417  0.2774  0.2696 -0.0037
14079WAT     H157022   2.246   2.545   6.352 -0.1992  0.8694 -0.1577
14079WAT     H257023   2.167   2.440   6.391  2.7566 -1.0169  1.0680
14079WAT    EPW57024   2.198   2.511   6.403  0.4240 -0.6066  0.3355
14080WAT      O57025   7.371   4.255   2.330  0.3843 -0.0960 -0.3253
14080WAT     H157026   7.374   4.233   2.415 -0.3701  0.9484 -0.0073
14080WAT     H257027   7.452   4.283   2.313  0.1983  0.9388  0.4157
14080WAT    EPW57028   7.383   4.256   2.340  0.1191 -0.2501  0.1849
14081WAT      O57029   1.556   0.960   3.293 -0.4546 -0.9599  0.0801
14081WAT     H157030   1.619   0.980   3.236 -0.2932  0.0746  0.5906
14081WAT     H257031   1.530   0.881   3.269 -0.7943 -0.3283 -1.7856
14081WAT    EPW57032   1.561   0.951   3.281 -0.0976 -0.4070 -0.0556
14082WAT      O57033   6.744   4.431   1.856  0.3059 -0.3871 -0.5674
14082WAT     H157034   6.660   4.434   1.880  1.1138  2.7199  2.6409
14082WAT     H257035   6.747   4.486   1.788 -0.0624  0.7518  0.3086
14082WAT    EPW57036   6.732   4.440   1.849  0.0781  0.1180  0.1786
14083WAT      O57037   3.242   3.468   2.526  0.2231 -0.1237 -0.0221
14083WAT     H157038   3.255   3.448   2.610  1.0132 -2.3928 -0.6085
14083WAT     H257039   3.167   3.428   2.506 -0.5547  1.3299 -0.1679
14083WAT    EPW57040   3.233   3.459   2.535  0.1305  0.2134 -0.4920
14084WAT      O57041   6.204   0.361   2.858 -0.0085 -0.5997  0.0017
14084WAT     H157042   6.194   0.435   2.813 -2.1757 -0.7777  0.1136
14084WAT     H257043   6.190   0.299   2.798 -0.9690 -0.8596  0.4799
14084WAT    EPW57044   6.201   0.363   2.842  0.0189  0.0745  0.0037
14085WAT      O57045   2.424   0.725   0.583  0.3035  0.2273 -0.5090
14085WAT     H157046   2.457   0.749   0.660 -0.1259  1.2456 -0.6246
14085WAT     H257047   2.366   0.663   0.604  1.7625 -1.0966 -0.2469
14085WAT    EPW57048   2.420   0.720   0.597  0.2735 -0.0600  0.4478
14086WAT      O57049   1.592   6.975   3.918 -0.3833 -0.5194  0.3378
14086WAT     H157050   1.634   6.960   3.993 -0.6395  2.1884  1.1100
14086WAT     H257051   1.511   6.947   3.933 -0.4274 -0.0135  1.0751
14086WAT    EPW57052   1.586   6.969   3.931 -0.0823 -0.3224  0.1175
14087WAT      O57053   1.378   1.674   2.795 -0.3045 -0.1597 -0.0005
14087WAT     H157054   1.324   1.664   2.727 -0.5335  1.3927 -0.0816
14087WAT     H257055   1.328   1.651   2.864 -0.7197  0.1712 -0.1832
14087WAT    EPW57056   1.362   1.669   2.795 -0.1102  0.2767 -0.1621
14088WAT      O57057   2.125   0.406   6.153 -0.3224 -0.1445  0.3629
14088WAT     H157058   2.192   0.378   6.202  0.6335 -0.3439 -1.0253
14088WAT     H257059   2.085   0.463   6.206  0.4243 -0.6450  1.5335
14088WAT    EPW57060   2.129   0.410   6.168  0.3923 -0.4177 -0.2219
14089WAT      O57061   5.270   2.259   1.198  0.2620 -0.2581 -0.2684
14089WAT     H157062   5.248   2.302   1.271  0.0419 -1.6465  0.5138
14089WAT     H257063   5.238   2.309   1.134  0.1024  0.7811  0.5919
14089WAT    EPW57064   5.262   2.273   1.200  0.0103 -0.0269  0.1331
14090WAT      O57065   2.587   7.314   4.689 -0.0009 -0.5204  0.0037
14090WAT     H157066   2.629   7.295   4.615 -1.2911 -1.6602 -0.4808
14090WAT     H257067   2.597   7.242   4.738 -0.0437 -0.1855  0.5183
14090WAT    EPW57068   2.594   7.300   4.686 -0.4721  0.1602  0.2457
14091WAT      O57069   4.416   4.563   7.508  0.1627  0.4895 -0.1362
14091WAT     H157070   4.479   4.522   7.551  0.4384  0.9974 -0.0557
14091WAT     H257071   4.447   4.643   7.497  0.2310  0.3041 -1.5350
14091WAT    EPW57072   4.430   4.568   7.512 -0.2806  0.1663  0.1003
   7.64167   7.59560   7.60726
