Generic title
 1062
    1C5    HO5'    1   3.201   5.213   3.419  0.7537 -0.6254  0.4783
    1C5     O5'    2   3.266   5.213   3.349  0.0572 -0.5786 -0.1914
    1C5     C5'    3   3.378   5.162   3.416 -0.3516  0.2454 -0.1526
    1C5     H5'    4   3.471   5.175   3.361  0.7785 -0.0547  1.6065
    1C5    H5''    5   3.357   5.055   3.422  0.4765 -0.1257 -2.6812
    1C5     C4'    6   3.393   5.232   3.543  0.2434 -0.2522 -0.1048
    1C5     H4'    7   3.434   5.331   3.523  0.0492  0.2482  1.7728
    1C5     O4'    8   3.271   5.251   3.614  0.2610  0.2440  0.0151
    1C5     C1'    9   3.290   5.213   3.752 -0.1003  0.2546 -0.4039
    1C5     H1'   10   3.249   5.282   3.826  0.2470 -0.2578  0.2725
    1C5      N1   11   3.239   5.070   3.784  0.2907  0.0486 -0.0179
    1C5      C6   12   3.216   4.974   3.684 -0.3460  0.0708  0.1764
    1C5      H6   13   3.241   4.992   3.580  0.3578 -1.6031  0.0295
    1C5      C5   14   3.159   4.857   3.720  0.0777  0.5277 -0.3629
    1C5      H5   15   3.128   4.796   3.636  0.4695  2.5324 -2.0317
    1C5      C4   16   3.132   4.831   3.855 -0.3517 -0.6150 -0.4617
    1C5      N4   17   3.078   4.716   3.885 -0.5431 -0.0189  0.5799
    1C5     H41   18   3.038   4.662   3.810  0.1162 -0.5027  0.5615
    1C5     H42   19   3.063   4.694   3.983 -0.1907 -0.6247  0.5057
    1C5      N3   20   3.166   4.915   3.953 -0.0572  0.2930 -0.7183
    1C5      C2   21   3.211   5.036   3.918 -0.2865  0.5141 -0.0730
    1C5      O2   22   3.229   5.118   4.011 -0.6434 -0.2935 -0.0444
    1C5     C3'   23   3.492   5.167   3.640  0.1946  0.2232  0.0118
    1C5     H3'   24   3.486   5.058   3.638 -0.1426  0.2481 -1.2049
    1C5     C2'   25   3.435   5.215   3.773 -0.4165  0.2354  0.0366
    1C5     H2'   26   3.466   5.153   3.857 -1.5114 -2.6135 -1.5302
    1C5     O2'   27   3.471   5.351   3.797  0.0998 -0.0673  0.2895
    1C5    HO2'   28   3.565   5.370   3.788 -0.5473  3.6597  0.0019
    1C5     O3'   29   3.627   5.208   3.619  0.2247  1.2328  0.4080
    2U        P   30   3.750   5.109   3.632 -0.4556 -0.2451  0.0041
    2U      OP1   31   3.875   5.180   3.582 -0.0813 -0.2542 -0.2710
    2U      OP2   32   3.705   4.977   3.574 -0.2507  0.1259 -0.6762
    2U      O5'   33   3.763   5.078   3.787  0.5691 -0.5199  0.3344
    2U      C5'   34   3.793   5.188   3.871 -0.0024  0.0290  0.1558
    2U      H5'   35   3.737   5.275   3.836 -2.0652 -1.6744 -1.0335
    2U     H5''   36   3.897   5.218   3.869  0.0823 -0.2126  0.6434
    2U      C4'   37   3.763   5.145   4.017 -0.1196  0.4746  0.1041
    2U      H4'   38   3.802   5.217   4.088 -0.8682  0.5354  0.4699
    2U      O4'   39   3.631   5.134   4.049 -0.3137 -0.1881  0.2163
    2U      C1'   40   3.608   5.018   4.125  0.1124  0.0494  0.2932
    2U      H1'   41   3.554   5.041   4.216 -0.4601  1.0867 -0.2958
    2U       N1   42   3.551   4.898   4.063  0.5318 -0.3752  0.5744
    2U       C6   43   3.534   4.885   3.928 -0.7406  0.1063 -0.5090
    2U       H6   44   3.575   4.959   3.860 -0.3735 -1.6364 -2.2893
    2U       C5   45   3.466   4.778   3.874 -0.6367 -0.7105 -0.4789
    2U       H5   46   3.448   4.780   3.768  0.2001  4.2479 -0.7968
    2U       C4   47   3.413   4.672   3.958 -0.1244 -1.0844  0.2096
    2U       O4   48   3.342   4.574   3.926 -0.4314  0.0733  0.1737
    2U       N3   49   3.435   4.697   4.090 -0.2972  0.4914 -0.1180
    2U       H3   50   3.410   4.620   4.150 -0.5419 -0.3386 -1.2519
    2U       C2   51   3.504   4.804   4.150 -0.2713  0.4492 -1.1464
    2U       O2   52   3.529   4.803   4.269 -0.7509 -0.1369  0.3027
    2U      C3'   53   3.828   5.009   4.038  0.2014  0.4217 -1.2961
    2U      H3'   54   3.801   4.928   3.972 -0.5381  0.5001 -1.1017
    2U      C2'   55   3.752   4.981   4.173 -0.1336 -0.2503  0.2747
    2U      H2'   56   3.757   4.875   4.200 -1.1383 -0.2856  0.3487
    2U      O2'   57   3.796   5.063   4.283  0.1788  0.3167 -0.0713
    2U     HO2'   58   3.760   5.040   4.369  2.6750 -0.9560  0.7399
    2U      O3'   59   3.970   5.023   4.064 -0.0973  0.0551  0.4208
    3G        P   60   4.065   4.896   4.042 -0.2669 -0.0949 -0.1507
    3G      OP1   61   4.203   4.957   4.046 -0.0253 -0.3005  0.0805
    3G      OP2   62   4.026   4.813   3.927 -0.2860 -0.1562 -0.2739
    3G      O5'   63   4.032   4.809   4.171  0.1436  0.0593  0.5139
    3G      C5'   64   4.075   4.860   4.302  0.4072  0.5584  0.9883
    3G      H5'   65   4.022   4.951   4.331 -0.5529  0.0384  0.9001
    3G     H5''   66   4.184   4.865   4.303  0.5438 -1.0342 -0.4161
    3G      C4'   67   4.031   4.759   4.406  0.7906  0.3850 -0.2018
    3G      H4'   68   4.068   4.781   4.506 -0.0418  1.4974 -0.1267
    3G      O4'   69   3.884   4.759   4.410 -0.7773  0.3974 -0.3772
    3G      C1'   70   3.833   4.623   4.429  0.1507 -0.2025 -0.4328
    3G      H1'   71   3.766   4.617   4.515 -0.6204  0.5907 -0.9631
    3G       N9   72   3.754   4.575   4.316  0.8236 -0.3836 -0.2208
    3G       C8   73   3.773   4.600   4.178  0.3320  0.2066  0.4533
    3G       H8   74   3.836   4.678   4.139  1.8780 -1.4015 -0.3801
    3G       N7   75   3.688   4.531   4.101 -0.2646  0.1740  0.2706
    3G       C5   76   3.626   4.442   4.190 -0.3373 -0.1244 -0.2237
    3G       C6   77   3.536   4.335   4.162  0.8699  0.1303  0.0691
    3G       O6   78   3.490   4.306   4.051 -0.6820 -0.5382 -0.4457
    3G       N1   79   3.499   4.263   4.278  0.2713 -0.7017  0.8198
    3G       H1   80   3.425   4.195   4.273 -0.6682  0.3699 -0.9227
    3G       C2   81   3.548   4.291   4.398 -0.0226 -0.3146  0.0205
    3G       N2   82   3.522   4.199   4.492  0.1167 -0.6163  0.5580
    3G      H21   83   3.452   4.128   4.474 -1.0954  0.4287  1.0356
    3G      H22   84   3.578   4.202   4.576 -0.3464  0.9178  0.8363
    3G       N3   85   3.637   4.384   4.427 -0.7083  0.1325 -0.7564
    3G       C4   86   3.665   4.471   4.322 -0.3866 -0.2003 -0.2827
    3G      C3'   87   4.066   4.617   4.372  0.1766  0.1947 -0.1131
    3G      H3'   88   4.056   4.606   4.264  1.3090  0.6709 -0.2888
    3G      C2'   89   3.964   4.542   4.454 -0.0763  0.0014  0.9485
    3G      H2'   90   3.951   4.442   4.412 -2.4166  0.1812  1.0779
    3G      O2'   91   3.978   4.539   4.597  0.0430  0.5282 -0.0740
    3G     HO2'   92   3.974   4.446   4.620  1.0560  0.8973  1.7941
    3G      O3'   93   4.200   4.583   4.414  0.1469  0.6193  0.4047
    4G        P   94   4.289   4.477   4.343  0.0930 -0.1780  0.0952
    4G      OP1   95   4.419   4.468   4.410 -0.0875  0.2580  0.4508
    4G      OP2   96   4.274   4.498   4.201 -0.4033 -0.3962 -0.5746
    4G      O5'   97   4.205   4.347   4.374  0.0307  0.5776  0.3966
    4G      C5'   98   4.188   4.299   4.512 -0.2194 -0.2782  0.2458
    4G      H5'   99   4.171   4.384   4.578  3.3120 -0.5827  1.7714
    4G     H5''  100   4.289   4.268   4.538 -0.0816  0.5879  0.7808
    4G      C4'  101   4.093   4.192   4.547  0.2776 -0.0915 -0.1969
    4G      H4'  102   4.099   4.173   4.654 -0.3539  0.3014 -0.0869
    4G      O4'  103   3.961   4.236   4.518 -0.3844 -0.5078 -0.0613
    4G      C1'  104   3.887   4.123   4.472 -0.1970 -0.1265 -0.0884
    4G      H1'  105   3.798   4.112   4.534 -1.3586  0.1119 -1.6480
    4G       N9  106   3.855   4.148   4.332  0.4570 -0.1470 -0.1461
    4G       C8  107   3.916   4.233   4.241 -0.0270  0.3610  0.4518
    4G       H8  108   3.992   4.306   4.264 -0.2006  0.8108 -0.3253
    4G       N7  109   3.870   4.217   4.122 -0.1796  0.1300  0.8769
    4G       C5  110   3.769   4.120   4.134 -0.6171 -0.4522  0.0434
    4G       C6  111   3.675   4.059   4.039  0.0734 -0.9610  0.0559
    4G       O6  112   3.665   4.089   3.921 -0.2718  0.3262 -0.2630
    4G       N1  113   3.597   3.957   4.094  0.3440  0.4105 -0.1764
    4G       H1  114   3.523   3.914   4.041  0.4219  0.3276 -0.2160
    4G       C2  115   3.613   3.917   4.219 -0.9777 -0.2841 -0.3772
    4G       N2  116   3.552   3.809   4.251 -0.1934  0.0175  0.0170
    4G      H21  117   3.485   3.762   4.191 -1.5456  0.0092  1.4787
    4G      H22  118   3.565   3.778   4.346  0.1587  2.5440  0.8575
    4G       N3  119   3.693   3.973   4.314 -0.3241  0.5047  0.1767
    4G       C4  120   3.765   4.075   4.262 -0.2898 -0.4006  0.3955
    4G      C3'  121   4.119   4.073   4.457 -0.7882 -0.2599 -0.2126
    4G      H3'  122   4.123   4.094   4.350 -1.0512  2.7389  0.2863
    4G      C2'  123   3.983   4.003   4.488 -0.3267 -0.5411  0.3035
    4G      H2'  124   3.959   3.931   4.410 -1.1089 -0.7214  0.7060
    4G      O2'  125   3.985   3.953   4.620 -0.3621  1.2396 -0.0549
    4G     HO2'  126   3.896   3.926   4.645 -0.7680  2.3206 -0.2650
    4G      O3'  127   4.228   3.991   4.492  0.1643  0.5313 -0.4031
    5G        P  128   4.294   3.894   4.386  0.5391 -0.0687  0.1403
    5G      OP1  129   4.410   3.834   4.453  0.3440  0.4132 -0.1803
    5G      OP2  130   4.305   3.960   4.255  0.1523 -1.1150 -0.1473
    5G      O5'  131   4.178   3.793   4.366  0.3135  0.0536  0.0594
    5G      C5'  132   4.155   3.697   4.469  0.4886 -0.4459 -0.2411
    5G      H5'  133   4.134   3.736   4.568  1.5662 -0.9133  0.1869
    5G     H5''  134   4.248   3.641   4.482  1.2439  1.1328  1.5502
    5G      C4'  135   4.034   3.619   4.430 -0.4077 -0.4777 -0.0832
    5G      H4'  136   4.008   3.560   4.518 -1.3950  2.3897  1.6893
    5G      O4'  137   3.919   3.691   4.398 -0.3014  0.6544 -0.7856
    5G      C1'  138   3.849   3.624   4.286  0.4536 -1.4515 -0.3210
    5G      H1'  139   3.744   3.618   4.312  0.2916 -1.4764 -0.9877
    5G       N9  140   3.867   3.708   4.164 -0.5879  0.0808  0.3941
    5G       C8  141   3.952   3.810   4.135 -0.1276  0.5435 -0.3611
    5G       H8  142   4.009   3.857   4.214 -0.1849  0.8245 -0.4817
    5G       N7  143   3.937   3.860   4.016 -0.4332  0.2710 -0.0122
    5G       C5  144   3.835   3.787   3.963  0.1428  0.2258 -0.0864
    5G       C6  145   3.765   3.794   3.837 -0.1866 -1.0488 -0.0578
    5G       O6  146   3.792   3.877   3.746 -0.3002 -0.2729  0.5711
    5G       N1  147   3.665   3.711   3.822  0.6177 -0.1955 -0.1715
    5G       H1  148   3.604   3.706   3.742  0.9779  0.0658 -0.4618
    5G       C2  149   3.639   3.614   3.907  0.4303  0.4624  0.0876
    5G       N2  150   3.541   3.532   3.890  0.4106  0.3083  0.2192
    5G      H21  151   3.495   3.530   3.800  2.7897 -3.1284 -1.1614
    5G      H22  152   3.517   3.466   3.963 -2.3369 -0.2423 -1.0485
    5G       N3  153   3.696   3.604   4.028  0.3009  0.5347  0.7148
    5G       C4  154   3.795   3.691   4.046  0.5862  0.0169 -0.2651
    5G      C3'  155   4.059   3.525   4.313 -0.5732  0.4154 -1.1238
    5G      H3'  156   4.106   3.588   4.238 -0.9193  2.2921  0.1708
    5G      C2'  157   3.916   3.488   4.271  0.2423  0.0170 -0.4216
    5G      H2'  158   3.909   3.444   4.172 -0.3789 -4.0226  1.2110
    5G      O2'  159   3.860   3.387   4.360 -0.1664 -0.4221  0.2963
    5G     HO2'  160   3.927   3.319   4.370 -1.6388 -1.8316  1.0701
    5G      O3'  161   4.141   3.423   4.360 -0.5337  0.0412 -0.0899
    6U        P  162   4.224   3.335   4.261  0.3344 -0.7016 -0.0085
    6U      OP1  163   4.365   3.334   4.308 -0.5296  0.3069 -0.1200
    6U      OP2  164   4.195   3.381   4.123 -0.2082 -0.6126 -0.6487
    6U      O5'  165   4.156   3.192   4.287 -0.4061 -0.5999  0.4736
    6U      C5'  166   4.153   3.132   4.415 -0.6058  0.3259 -0.2653
    6U      H5'  167   4.138   3.205   4.495 -1.5058 -2.3533  2.2394
    6U     H5''  168   4.251   3.086   4.429  0.9785  2.9770 -1.8271
    6U      C4'  169   4.039   3.038   4.417  0.2137  0.3261 -0.2145
    6U      H4'  170   4.038   2.983   4.511 -2.7533 -1.3741 -1.1041
    6U      O4'  171   3.900   3.093   4.400  0.2724  0.0289 -0.6692
    6U      C1'  172   3.825   3.011   4.317 -0.0909  0.6264  0.0290
    6U      H1'  173   3.731   2.980   4.361 -0.0874 -1.4734 -1.2801
    6U       N1  174   3.798   3.068   4.177 -0.7231  0.1454 -0.2313
    6U       C6  175   3.873   3.168   4.131 -0.7273 -0.3388  0.4034
    6U       H6  176   3.962   3.201   4.183  1.1020 -2.8271 -0.9090
    6U       C5  177   3.832   3.228   4.018  0.2258 -0.1260 -1.1094
    6U       H5  178   3.884   3.313   3.976 -0.5709  0.6329 -0.5905
    6U       C4  179   3.726   3.177   3.936  0.3604  0.2076  0.1380
    6U       O4  180   3.689   3.215   3.827 -1.1597  0.1333  0.7799
    6U       N3  181   3.685   3.057   3.977 -0.1629 -0.1201  0.0381
    6U       H3  182   3.611   3.022   3.918  0.4960  1.9190 -2.2001
    6U       C2  183   3.709   3.002   4.097  0.6048 -0.4292  0.7571
    6U       O2  184   3.654   2.896   4.132  0.5748  0.0671  0.4775
    6U      C3'  185   4.058   2.934   4.314  0.2657 -0.0782  0.4347
    6U      H3'  186   4.078   2.983   4.219 -0.9492 -1.6062 -0.6702
    6U      C2'  187   3.913   2.884   4.307 -0.3857 -0.2065  0.2342
    6U      H2'  188   3.896   2.829   4.214  1.0655 -3.1191  1.5547
    6U      O2'  189   3.878   2.799   4.415 -0.1422 -0.1673  0.9304
    6U     HO2'  190   3.838   2.722   4.375 -0.6647  0.9803 -0.9048
    6U      O3'  191   4.152   2.830   4.332  0.8234  0.3161 -0.1762
    7C        P  192   4.236   2.772   4.214  0.7052 -0.1360 -0.1198
    7C      OP1  193   4.306   2.657   4.271 -0.0580  0.3926  0.2605
    7C      OP2  194   4.311   2.888   4.156 -0.3968 -0.0626  0.4326
    7C      O5'  195   4.137   2.733   4.093 -0.7008  0.1555  0.3277
    7C      C5'  196   4.046   2.632   4.099 -0.4698 -0.2534 -0.2225
    7C      H5'  197   3.991   2.623   4.193  1.2810 -1.3146  0.7355
    7C     H5''  198   4.109   2.543   4.091 -0.3763 -0.1905 -0.1793
    7C      C4'  199   3.955   2.637   3.982 -0.3388  0.3527  0.2655
    7C      H4'  200   3.877   2.561   3.988 -0.2328  0.2398  0.2244
    7C      O4'  201   3.891   2.757   3.977  0.5811 -0.6401  0.4628
    7C      C1'  202   3.891   2.806   3.843  1.0266  0.3982  0.7903
    7C      H1'  203   3.787   2.832   3.825  1.6181  1.8578 -0.7304
    7C       N1  204   3.975   2.926   3.820  0.5901  0.4760 -0.2164
    7C       C6  205   4.048   2.984   3.918  0.2167  0.2628 -0.7459
    7C       H6  206   4.053   2.929   4.011  1.8711 -0.9317 -1.5030
    7C       C5  207   4.106   3.107   3.897  0.4487  0.0731  0.6091
    7C       H5  208   4.168   3.152   3.972  0.9053  1.1339 -0.3673
    7C       C4  209   4.082   3.166   3.771 -0.6670 -0.2786  0.3176
    7C       N4  210   4.142   3.279   3.749 -0.9290 -0.0368  0.1541
    7C      H41  211   4.220   3.312   3.804 -0.4847  0.7428 -0.9173
    7C      H42  212   4.125   3.307   3.654  0.0372 -1.7478 -0.5819
    7C       N3  213   3.994   3.120   3.688 -0.0484  0.2448 -0.4969
    7C       C2  214   3.932   3.000   3.712  0.1042 -0.5773 -1.0171
    7C       O2  215   3.847   2.957   3.632 -1.0359  0.2306 -0.4683
    7C      C3'  216   4.034   2.627   3.856 -0.4760 -0.4771  0.0231
    7C      H3'  217   4.124   2.689   3.856 -2.1466  2.1263 -1.1154
    7C      C2'  218   3.936   2.688   3.758  0.1087  0.5210  0.4860
    7C      H2'  219   3.973   2.724   3.661 -1.3484 -0.7373 -0.5921
    7C      O2'  220   3.825   2.602   3.733  0.6972  0.1911 -0.0928
    7C     HO2'  221   3.784   2.611   3.646 -1.5414 -2.8204  0.4490
    7C      O3'  222   4.075   2.499   3.831  0.7101 -0.5471  0.4035
    8G        P  223   4.220   2.467   3.775 -0.4604 -0.1934  0.1095
    8G      OP1  224   4.227   2.318   3.749 -0.0726 -0.0756 -0.1717
    8G      OP2  225   4.321   2.519   3.867  0.2390 -0.0909 -0.3062
    8G      O5'  226   4.230   2.544   3.637  0.0556  0.0982  0.4289
    8G      C5'  227   4.147   2.512   3.526  0.4035 -0.6497 -0.3293
    8G      H5'  228   4.047   2.516   3.567 -0.1894  2.0974 -1.8156
    8G     H5''  229   4.177   2.420   3.476  1.9028  0.5568 -1.7957
    8G      C4'  230   4.173   2.631   3.426  0.0883  0.0916  0.0691
    8G      H4'  231   4.112   2.613   3.337  0.8339  0.4120 -0.5146
    8G      O4'  232   4.122   2.753   3.478  0.8039 -0.0387  0.3437
    8G      C1'  233   4.180   2.863   3.418  0.1806  0.5867  0.1569
    8G      H1'  234   4.106   2.908   3.352 -1.7424 -1.0156  1.1211
    8G       N9  235   4.235   2.956   3.514 -0.4874  0.2825 -0.0471
    8G       C8  236   4.276   2.921   3.641 -0.0299 -0.2694 -0.5817
    8G       H8  237   4.237   2.828   3.678 -0.1973  0.1704  0.3801
    8G       N7  238   4.361   3.008   3.699 -0.0827 -0.5817  0.3089
    8G       C5  239   4.370   3.104   3.595 -0.6149 -0.4744  0.2678
    8G       C6  240   4.456   3.218   3.591 -0.0166 -0.8374 -0.0129
    8G       O6  241   4.541   3.256   3.672  0.5305 -0.3396  0.2127
    8G       N1  242   4.438   3.290   3.473 -0.3155 -0.2186  0.4671
    8G       H1  243   4.502   3.366   3.455 -0.3953 -0.1710  0.3795
    8G       C2  244   4.357   3.256   3.370 -0.2982 -0.2723  0.1686
    8G       N2  245   4.366   3.326   3.259 -0.6308 -0.3689 -0.0995
    8G      H21  246   4.404   3.420   3.254 -1.6108  0.0070 -1.5848
    8G      H22  247   4.318   3.301   3.173  0.6653 -0.8569 -0.6992
    8G       N3  248   4.279   3.153   3.370  0.0255 -0.3535  0.1454
    8G       C4  249   4.290   3.079   3.485 -1.0176  0.4242  0.8338
    8G      C3'  250   4.318   2.668   3.392  0.0352 -0.3400  0.0829
    8G      H3'  251   4.378   2.690   3.480 -0.5554 -1.1936  0.7267
    8G      C2'  252   4.286   2.801   3.327  0.1194  0.6463  0.8601
    8G      H2'  253   4.382   2.853   3.320  1.1644 -1.3407 -0.6746
    8G      O2'  254   4.225   2.788   3.201 -0.5428  0.2608 -0.6307
    8G     HO2'  255   4.285   2.816   3.132 -0.6369  1.4341 -0.2518
    8G      O3'  256   4.375   2.562   3.318 -0.4207  0.0090  0.0192
    9C        P  257   4.517   2.495   3.362 -0.1248  0.0466 -0.1090
    9C      OP1  258   4.558   2.385   3.276 -0.1783  0.4682 -0.1029
    9C      OP2  259   4.497   2.483   3.507  0.1078 -0.5086  0.0400
    9C      O5'  260   4.621   2.606   3.339  0.0736 -0.0452 -0.3964
    9C      C5'  261   4.757   2.583   3.379  0.3519  0.1322 -0.3102
    9C      H5'  262   4.788   2.485   3.344  1.2474 -0.2104  1.3273
    9C     H5''  263   4.769   2.595   3.487 -2.3967 -0.8022  0.1763
    9C      C4'  264   4.847   2.682   3.309 -0.0808 -0.1125  0.4934
    9C      H4'  265   4.943   2.686   3.360 -0.0784  1.4101  0.4084
    9C      O4'  266   4.874   2.638   3.174  0.2878  0.3675 -0.1362
    9C      C1'  267   4.858   2.737   3.074  0.8443  0.4427 -0.7170
    9C      H1'  268   4.940   2.738   3.002  0.4012 -0.1833 -1.2349
    9C       N1  269   4.726   2.729   2.999  0.1691 -0.1908  0.0533
    9C       C6  270   4.634   2.633   3.037  0.2524 -0.0947  0.1736
    9C       H6  271   4.663   2.571   3.121  0.9499  1.8006  1.4066
    9C       C5  272   4.523   2.616   2.968 -0.5804 -0.1855  0.1751
    9C       H5  273   4.447   2.542   2.989  0.1333 -1.1180 -0.4664
    9C       C4  274   4.504   2.704   2.858  0.3677  0.5476  0.3561
    9C       N4  275   4.400   2.689   2.782  0.0164 -0.5202  0.8884
    9C      H41  276   4.338   2.612   2.802 -2.0467  1.5965  3.2149
    9C      H42  277   4.400   2.742   2.695 -0.4748 -0.8342  0.6947
    9C       N3  278   4.584   2.802   2.826 -0.3848  0.0766  0.1082
    9C       C2  279   4.695   2.818   2.902 -0.0108  0.2617 -0.6992
    9C       O2  280   4.779   2.909   2.877  0.4751 -0.1404  0.2509
    9C      C3'  281   4.801   2.825   3.295  0.0846  1.1065 -0.2397
    9C      H3'  282   4.693   2.833   3.284 -0.1789  0.0651  1.3639
    9C      C2'  283   4.863   2.867   3.164 -0.4027  0.4500  0.1315
    9C      H2'  284   4.798   2.948   3.131 -1.9873 -0.3213  1.2096
    9C      O2'  285   5.004   2.899   3.177 -0.6781 -0.5607 -0.4477
    9C     HO2'  286   5.016   2.987   3.140 -0.5520  1.3052  3.5006
    9C      O3'  287   4.840   2.911   3.398 -0.0369 -0.0143  0.5762
   10A        P  288   4.756   3.028   3.465 -0.2868 -0.1217  0.1285
   10A      OP1  289   4.841   3.099   3.564  0.3107 -0.0652 -0.1100
   10A      OP2  290   4.632   2.957   3.508  0.3324  0.0101 -0.2502
   10A      O5'  291   4.723   3.131   3.340 -0.1645 -0.0652 -0.6215
   10A      C5'  292   4.830   3.190   3.267 -0.1126  0.4029 -0.2556
   10A      H5'  293   4.897   3.107   3.241  0.5349  0.9066 -0.2297
   10A     H5''  294   4.882   3.267   3.324  2.0762  1.3942 -3.3343
   10A      C4'  295   4.797   3.249   3.131  0.0006  0.3736  0.2951
   10A      H4'  296   4.887   3.304   3.103  0.3637 -0.6862 -0.6963
   10A      O4'  297   4.763   3.154   3.025  0.2962 -0.5795 -0.0098
   10A      C1'  298   4.640   3.195   2.963  0.6265 -0.3960 -0.1628
   10A      H1'  299   4.661   3.190   2.856  0.5354  1.9277 -0.3291
   10A       N9  300   4.527   3.106   2.985  0.2022 -0.0587  0.0318
   10A       C8  301   4.497   3.029   3.094 -0.0214  0.0855  0.1503
   10A       H8  302   4.565   3.024   3.177 -1.1368 -2.3174  1.0309
   10A       N7  303   4.397   2.949   3.069  0.4476 -0.5275  0.0480
   10A       C5  304   4.347   2.986   2.939  0.6355  0.3722 -0.5089
   10A       C6  305   4.244   2.943   2.850  1.0388  0.4893  0.3062
   10A       N6  306   4.155   2.860   2.886 -0.1587  0.4975  0.0647
   10A      H61  307   4.076   2.850   2.824  0.6798  0.3850 -1.0165
   10A      H62  308   4.147   2.821   2.979 -1.1001  0.4831 -0.0071
   10A       N1  309   4.239   2.993   2.733  0.5652  0.0142  0.3911
   10A       C2  310   4.327   3.083   2.696  0.6593 -0.6005  0.3258
   10A       H2  311   4.319   3.117   2.593 -1.9675  0.9960  0.9701
   10A       N3  312   4.412   3.146   2.774 -0.4994  0.0375  0.7461
   10A       C4  313   4.431   3.082   2.892 -0.6642  0.4418  0.6607
   10A      C3'  314   4.679   3.344   3.131  0.3840 -0.9398 -0.1811
   10A      H3'  315   4.609   3.307   3.207 -1.2965 -0.2097 -1.3236
   10A      C2'  316   4.614   3.340   2.995 -0.0865  0.5293  0.3340
   10A      H2'  317   4.506   3.350   3.002 -0.2758  0.6372 -1.8432
   10A      O2'  318   4.673   3.429   2.902  0.2697 -0.0724 -0.1992
   10A     HO2'  319   4.759   3.454   2.936  1.3570 -0.4322 -2.5144
   10A      O3'  320   4.732   3.474   3.162  0.4168 -0.2581  0.1145
   11G        P  321   4.666   3.549   3.273  0.0462  0.0883 -0.1700
   11G      OP1  322   4.726   3.683   3.293  0.3560  0.4054 -0.1177
   11G      OP2  323   4.654   3.470   3.397 -0.0914  0.7419 -0.4867
   11G      O5'  324   4.525   3.573   3.224  0.2046 -0.0472 -0.3868
   11G      C5'  325   4.502   3.651   3.106  0.5552 -0.5172 -0.8443
   11G      H5'  326   4.506   3.592   3.014  3.1816 -0.5595 -0.7909
   11G     H5''  327   4.576   3.731   3.104  0.2064 -0.1803 -0.1862
   11G      C4'  328   4.367   3.715   3.118 -0.1933  0.1962 -0.9643
   11G      H4'  329   4.352   3.752   3.017  2.5352 -0.8479 -1.8366
   11G      O4'  330   4.266   3.628   3.150 -0.0318 -0.0038 -0.7358
   11G      C1'  331   4.214   3.673   3.276 -0.4962 -0.8255  0.1106
   11G      H1'  332   4.137   3.747   3.255 -1.1124 -0.8321  2.1478
   11G       N9  333   4.158   3.566   3.346  0.2172  0.7593 -0.8158
   11G       C8  334   4.188   3.518   3.476  0.4313 -0.0163  0.4457
   11G       H8  335   4.259   3.569   3.539 -1.4826 -0.0816  2.8307
   11G       N7  336   4.127   3.410   3.508 -0.2775  0.0563  0.2088
   11G       C5  337   4.037   3.395   3.400 -0.2995  0.1191  0.1531
   11G       C6  338   3.936   3.298   3.376  0.7246 -0.4426 -0.1663
   11G       O6  339   3.904   3.198   3.435  0.2149 -0.2750 -0.3753
   11G       N1  340   3.872   3.316   3.256 -0.1625 -0.4797 -1.1864
   11G       H1  341   3.802   3.246   3.235  0.5034 -1.7484  0.7076
   11G       C2  342   3.904   3.408   3.157  0.9331  0.2061 -0.1436
   11G       N2  343   3.830   3.397   3.050 -0.2361 -0.0211  0.2602
   11G      H21  344   3.757   3.327   3.041 -2.8510  2.3282  1.5280
   11G      H22  345   3.824   3.473   2.984 -0.2805  1.7881  2.2267
   11G       N3  346   3.993   3.502   3.171 -0.1046 -0.4200 -0.4868
   11G       C4  347   4.061   3.487   3.298 -0.3465  0.5192  0.8070
   11G      C3'  348   4.367   3.826   3.224 -0.5354  0.0212  0.0064
   11G      H3'  349   4.466   3.856   3.255 -0.4492 -1.6989  1.5304
   11G      C2'  350   4.314   3.756   3.351  0.0354  0.4479  0.2651
   11G      H2'  351   4.393   3.700   3.401 -1.2073 -0.8934  0.8223
   11G      O2'  352   4.255   3.850   3.437 -0.5945  0.0769 -0.3845
   11G     HO2'  353   4.239   3.805   3.520  0.5506 -0.4688 -0.4335
   11G      O3'  354   4.292   3.937   3.177  0.8045  0.1251  0.0928
   12U        P  355   4.355   4.033   3.065  0.1262 -0.1467  0.1976
   12U      OP1  356   4.272   4.016   2.946 -0.6094 -0.4778 -0.2344
   12U      OP2  357   4.495   3.989   3.046  0.4064  0.6179  0.0585
   12U      O5'  358   4.341   4.179   3.119 -0.0489  0.3045 -0.1218
   12U      C5'  359   4.389   4.211   3.246 -0.5315  0.5122 -0.0110
   12U      H5'  360   4.471   4.146   3.274 -0.8795 -1.2735 -2.7394
   12U     H5''  361   4.314   4.204   3.325  0.1612 -0.3951  0.5790
   12U      C4'  362   4.451   4.348   3.229  0.3858 -0.9533 -0.0631
   12U      H4'  363   4.482   4.390   3.325 -0.8334 -2.0233  0.8528
   12U      O4'  364   4.569   4.331   3.153  0.9008  0.3099 -0.3732
   12U      C1'  365   4.571   4.430   3.052  0.2562  0.0886  0.3665
   12U      H1'  366   4.614   4.520   3.096  3.8901 -1.4021  0.2986
   12U       N1  367   4.646   4.386   2.930  0.7151  0.3490 -0.1994
   12U       C6  368   4.624   4.257   2.879  0.0876 -0.1884  0.2495
   12U       H6  369   4.562   4.189   2.936 -0.9631 -1.5569 -2.3851
   12U       C5  370   4.686   4.222   2.762  0.4074  0.1477  0.1706
   12U       H5  371   4.670   4.123   2.722  1.1788 -1.9534  4.4264
   12U       C4  372   4.759   4.317   2.684 -0.6182 -0.4569  0.2558
   12U       O4  373   4.811   4.288   2.577 -0.0772  0.3655 -0.3614
   12U       N3  374   4.775   4.441   2.738 -0.6559 -0.6081 -0.6578
   12U       H3  375   4.844   4.500   2.693 -1.1124  2.0736  1.7990
   12U       C2  376   4.721   4.483   2.858  0.2940 -0.2408  0.3804
   12U       O2  377   4.736   4.603   2.897 -0.1021 -0.2578  0.1173
   12U      C3'  378   4.368   4.452   3.160  0.2094  0.3338  0.2933
   12U      H3'  379   4.263   4.423   3.170  0.6178 -1.6736 -0.7427
   12U      C2'  380   4.427   4.440   3.015  0.2789  0.4706  0.2218
   12U      H2'  381   4.390   4.352   2.962  1.3139 -1.0681  1.9473
   12U      O2'  382   4.422   4.554   2.937  0.5751 -0.6876 -0.0788
   12U     HO2'  383   4.376   4.622   2.986  0.8862 -1.0542  0.7520
   12U      O3'  384   4.399   4.584   3.200  0.2998 -0.4565  0.4706
   13A        P  385   4.349   4.635   3.338  0.3440 -0.0894  0.4593
   13A      OP1  386   4.367   4.783   3.342  0.7933  0.5962 -0.6031
   13A      OP2  387   4.395   4.554   3.452  0.4898 -0.0683  0.4180
   13A      O5'  388   4.197   4.606   3.303 -0.4211 -0.4855 -0.2195
   13A      C5'  389   4.104   4.648   3.403  0.0896 -0.4423 -0.2580
   13A      H5'  390   4.101   4.757   3.402 -1.3179 -0.4589 -1.4715
   13A     H5''  391   4.132   4.617   3.503  2.5103  1.0751 -0.3990
   13A      C4'  392   3.960   4.599   3.370 -0.4075 -0.7097  1.1721
   13A      H4'  393   3.897   4.641   3.447 -0.7641  0.7912  0.1122
   13A      O4'  394   3.917   4.650   3.241  0.5504 -0.6114  0.3130
   13A      C1'  395   3.827   4.566   3.187  0.4327 -0.4548 -0.5863
   13A      H1'  396   3.727   4.609   3.192  0.8692  0.5844 -0.6729
   13A       N9  397   3.846   4.552   3.038  0.2782  0.3280  0.0682
   13A       C8  398   3.815   4.638   2.937  0.3604 -0.2651 -0.6837
   13A       H8  399   3.756   4.727   2.956 -1.8596 -2.1838  2.2849
   13A       N7  400   3.863   4.609   2.823 -0.4299 -0.2901  0.0356
   13A       C5  401   3.935   4.484   2.844  0.0968 -0.3717  0.1040
   13A       C6  402   4.004   4.401   2.761 -0.0894  0.4051  0.1665
   13A       N6  403   4.023   4.420   2.631 -0.8048  0.1680 -0.0133
   13A      H61  404   4.064   4.354   2.566 -1.0400  1.3350 -1.3913
   13A      H62  405   3.976   4.503   2.599 -0.6559  0.6151  0.8754
   13A       N1  406   4.065   4.297   2.811 -0.0339  0.1905  0.1277
   13A       C2  407   4.059   4.277   2.946  0.2455  0.0156 -0.1776
   13A       H2  408   4.109   4.190   2.986  0.4556  0.7726  1.2768
   13A       N3  409   3.991   4.351   3.035 -0.7992 -0.5547 -0.5552
   13A       C4  410   3.923   4.453   2.979 -0.8913 -0.4023  0.0227
   13A      C3'  411   3.943   4.444   3.352 -0.2503 -0.6871  0.4840
   13A      H3'  412   4.022   4.415   3.283  0.4488  2.5906 -0.2594
   13A      C2'  413   3.813   4.447   3.278 -0.1990 -0.6494  0.4891
   13A      H2'  414   3.800   4.353   3.224 -1.3633 -1.1175  1.5606
   13A      O2'  415   3.705   4.474   3.361  0.0046  0.1271 -0.2590
   13A     HO2'  416   3.632   4.438   3.309 -0.8147  0.9165  0.3124
   13A      O3'  417   3.929   4.377   3.475  0.5050  0.6271 -0.1203
   14A        P  418   4.010   4.247   3.517  0.0121 -0.0837  0.2731
   14A      OP1  419   3.960   4.205   3.648 -0.4160  0.4019  0.0115
   14A      OP2  420   4.156   4.273   3.503 -0.2329 -0.2079 -0.3272
   14A      O5'  421   3.959   4.132   3.423 -0.8669 -0.3065  0.7819
   14A      C5'  422   4.014   4.116   3.294  0.2160  0.4285 -0.4495
   14A      H5'  423   4.107   4.061   3.302  0.9270  1.5488 -0.8965
   14A     H5''  424   4.025   4.216   3.252  5.6356  0.7599  1.0260
   14A      C4'  425   3.925   4.028   3.206 -0.7084 -0.3422 -0.8509
   14A      H4'  426   3.934   4.063   3.103 -0.9864  0.0781 -0.7369
   14A      O4'  427   3.968   3.891   3.215 -0.0833 -0.0563 -0.1061
   14A      C1'  428   3.861   3.799   3.225 -0.0561 -0.1966  0.0574
   14A      H1'  429   3.869   3.722   3.148 -0.8132 -0.1184 -0.1064
   14A       N9  430   3.856   3.749   3.361  0.3181 -0.7180 -0.2472
   14A       C8  431   3.935   3.776   3.466  0.2810  0.0868  0.0746
   14A       H8  432   4.010   3.853   3.465  0.4287 -0.0554  0.2448
   14A       N7  433   3.920   3.696   3.569 -0.3739 -0.0978 -0.3136
   14A       C5  434   3.820   3.613   3.527  0.0249 -0.4503 -0.2544
   14A       C6  435   3.750   3.505   3.577 -0.3919  0.1188 -0.2470
   14A       N6  436   3.778   3.450   3.695  0.3081  0.1382  0.3916
   14A      H61  437   3.730   3.364   3.714  1.2455 -0.2792  0.9707
   14A      H62  438   3.860   3.473   3.751  0.5296 -0.9334  0.5210
   14A       N1  439   3.667   3.434   3.503 -0.2423 -0.1078 -0.2048
   14A       C2  440   3.646   3.472   3.384 -0.7556  0.1619  0.2050
   14A       H2  441   3.574   3.415   3.327  0.3531  0.2051 -1.3136
   14A       N3  442   3.692   3.577   3.322 -0.4875  0.0708  0.7173
   14A       C4  443   3.781   3.645   3.399  0.9019 -0.7543  0.4605
   14A      C3'  444   3.779   4.029   3.246  0.5167  0.4908 -0.7692
   14A      H3'  445   3.767   4.031   3.354 -1.0826  1.6717 -0.9367
   14A      C2'  446   3.732   3.888   3.202  0.5478  0.3791 -0.2522
   14A      H2'  447   3.649   3.843   3.256  0.6454  0.3266 -0.1440
   14A      O2'  448   3.702   3.890   3.065  0.0854  0.2671  0.2473
   14A     HO2'  449   3.647   3.965   3.042  1.9589  1.4772 -0.6017
   14A      O3'  450   3.699   4.133   3.197  0.3613  0.4499 -0.5467
   15C        P  451   3.559   4.173   3.260  0.1620  0.0852 -0.1746
   15C      OP1  452   3.544   4.315   3.228  0.2261 -0.2760 -0.6935
   15C      OP2  453   3.551   4.125   3.401  0.5769  0.0736 -0.2483
   15C      O5'  454   3.464   4.086   3.172  0.3298  0.1740 -0.0569
   15C      C5'  455   3.338   4.134   3.129 -0.1630 -0.5316 -0.2965
   15C      H5'  456   3.340   4.241   3.108  2.0383 -0.2078  1.2421
   15C     H5''  457   3.275   4.138   3.218  0.5341 -0.5070  0.2029
   15C      C4'  458   3.280   4.055   3.016  0.1439  0.2736  0.5147
   15C      H4'  459   3.181   4.096   2.994  1.0968  2.8502  0.7025
   15C      O4'  460   3.357   4.057   2.894 -0.3758 -0.5170 -0.2335
   15C      C1'  461   3.341   3.931   2.833  0.7768  0.2017 -0.3052
   15C      H1'  462   3.239   3.922   2.795  0.1539  2.0047  0.7632
   15C       N1  463   3.447   3.914   2.731  0.6820  0.2530 -0.5374
   15C       C6  464   3.558   3.841   2.749 -0.4095 -0.2959  0.0931
   15C       H6  465   3.572   3.779   2.836 -0.7152 -0.4284  0.0505
   15C       C5  466   3.656   3.834   2.653 -0.1087  0.0625  0.5515
   15C       H5  467   3.744   3.772   2.656 -1.3318 -1.8260 -0.4978
   15C       C4  468   3.628   3.902   2.528  0.9812  0.1327 -0.5826
   15C       N4  469   3.714   3.895   2.432 -0.0644 -0.0262  0.2901
   15C      H41  470   3.794   3.834   2.439  0.4453  0.4008 -1.3059
   15C      H42  471   3.696   3.942   2.345 -0.0335 -1.6518 -0.6238
   15C       N3  472   3.520   3.976   2.509 -0.4443 -0.2379  0.9643
   15C       C2  473   3.432   3.989   2.609  0.5871 -0.1742 -0.5302
   15C       O2  474   3.336   4.062   2.587  0.0608 -0.1746 -0.2292
   15C      C3'  475   3.266   3.909   3.057  0.1743 -0.3070  0.6545
   15C      H3'  476   3.290   3.903   3.163  1.7429  0.2815  0.3623
   15C      C2'  477   3.363   3.843   2.954  0.1945 -0.4612  0.1134
   15C      H2'  478   3.463   3.864   2.993  0.6592 -0.7909 -0.8794
   15C      O2'  479   3.329   3.707   2.934 -0.0598  0.3156  0.3139
   15C     HO2'  480   3.389   3.653   2.986  0.9202  0.5165 -0.5703
   15C      O3'  481   3.141   3.877   3.028 -0.0461 -0.1287  0.5363
   16C        P  482   3.030   3.891   3.141 -0.1076  0.3246  0.4072
   16C      OP1  483   2.897   3.874   3.077 -0.7856 -0.1400  0.8057
   16C      OP2  484   3.065   4.017   3.215 -0.1338  0.0773 -0.2167
   16C      O5'  485   3.052   3.767   3.225  0.0340 -0.0086 -0.0113
   16C      C5'  486   3.042   3.637   3.176 -0.2960  1.0850  0.6965
   16C      H5'  487   3.112   3.630   3.093 -0.1079  1.4642  0.8195
   16C     H5''  488   2.943   3.623   3.132  0.5601  0.5437 -1.1839
   16C      C4'  489   3.067   3.527   3.283 -0.3398  0.2404 -0.1966
   16C      H4'  490   3.011   3.438   3.253 -0.7493  0.6148 -0.5474
   16C      O4'  491   3.201   3.498   3.291  0.1052  0.2018 -0.6999
   16C      C1'  492   3.243   3.497   3.429 -0.4311  0.0192  0.6507
   16C      H1'  493   3.299   3.407   3.453  0.1100  0.0013 -0.6019
   16C       N1  494   3.327   3.615   3.461  0.1295  0.6173 -0.8069
   16C       C6  495   3.351   3.715   3.370 -0.6633 -0.1175 -0.2614
   16C       H6  496   3.291   3.717   3.280  1.7109 -1.4690 -1.9745
   16C       C5  497   3.442   3.813   3.401  0.8477 -0.2826  0.8542
   16C       H5  498   3.452   3.896   3.333 -1.4093 -0.8527 -0.2473
   16C       C4  499   3.516   3.804   3.516 -0.3989  0.4422  0.2859
   16C       N4  500   3.592   3.903   3.549  0.4255 -0.2399 -0.1954
   16C      H41  501   3.596   3.987   3.494  0.9633  0.0109  0.2192
   16C      H42  502   3.652   3.891   3.630  1.2461  0.6333 -0.6511
   16C       N3  503   3.488   3.713   3.613 -0.3471  0.0979  0.4352
   16C       C2  504   3.399   3.620   3.587  0.5283 -0.2363 -0.2724
   16C       O2  505   3.381   3.535   3.665  0.5827 -0.0108 -0.7045
   16C      C3'  506   3.024   3.575   3.422  0.1131 -0.6457  0.1464
   16C      H3'  507   3.044   3.681   3.429 -2.2078  0.0890 -2.6025
   16C      C2'  508   3.115   3.501   3.512  0.7145  0.4787 -0.2465
   16C      H2'  509   3.132   3.560   3.603  0.5392  1.8430 -1.0809
   16C      O2'  510   3.071   3.361   3.526  0.1124 -0.5737 -0.4452
   16C     HO2'  511   3.139   3.309   3.569 -0.3760  0.1908  1.3422
   16C      O3'  512   2.888   3.562   3.441 -0.2943 -0.5840  0.2269
   17C        P  513   2.808   3.629   3.559 -0.0419 -0.1107 -0.2679
   17C      OP1  514   2.679   3.560   3.565 -0.1078  0.2275 -0.3530
   17C      OP2  515   2.824   3.778   3.540 -0.2281 -0.0779  0.2585
   17C      O5'  516   2.880   3.598   3.697 -0.1894 -0.0862  0.2696
   17C      C5'  517   2.879   3.469   3.751 -0.6649  0.0947  0.4178
   17C      H5'  518   2.903   3.392   3.678  2.2239 -0.2911  1.6217
   17C     H5''  519   2.779   3.456   3.792 -1.2303  1.9584 -0.2165
   17C      C4'  520   2.977   3.462   3.866  0.4623 -0.7315 -0.7901
   17C      H4'  521   2.979   3.364   3.914  1.2448  0.1655  1.1333
   17C      O4'  522   3.115   3.489   3.832  0.2085 -0.1752  0.3832
   17C      C1'  523   3.174   3.548   3.944 -0.5844 -0.2749  0.4009
   17C      H1'  524   3.261   3.490   3.976 -0.8382  0.1679  1.9414
   17C       N1  525   3.220   3.685   3.915  0.2902  0.3239  0.3991
   17C       C6  526   3.171   3.750   3.804  0.0810 -0.8509 -0.1609
   17C       H6  527   3.092   3.709   3.743 -2.3627 -1.2546  3.0414
   17C       C5  528   3.225   3.869   3.766  0.0839  0.2736 -0.2374
   17C       H5  529   3.204   3.910   3.668  1.6152  1.2621 -0.1867
   17C       C4  530   3.346   3.906   3.834 -0.1435 -0.9447  0.1747
   17C       N4  531   3.428   3.991   3.794 -1.0813 -0.1001  0.0847
   17C      H41  532   3.422   4.051   3.713  0.9456 -0.0277 -0.0823
   17C      H42  533   3.509   4.001   3.854  0.2851 -1.2574 -1.4989
   17C       N3  534   3.389   3.846   3.943  0.1191 -0.5238 -0.2546
   17C       C2  535   3.327   3.737   3.988  0.1781  0.2327  0.6437
   17C       O2  536   3.366   3.691   4.092 -0.6472  0.8038  0.1028
   17C      C3'  537   2.944   3.566   3.976  0.4648  0.1849 -0.1043
   17C      H3'  538   2.943   3.667   3.937  2.7808  0.0537 -0.6600
   17C      C2'  539   3.073   3.552   4.057 -0.3566 -1.1344  0.1602
   17C      H2'  540   3.092   3.631   4.130  0.2150 -0.6687 -0.4781
   17C      O2'  541   3.077   3.426   4.126  0.0981 -0.0501 -0.4005
   17C     HO2'  542   3.121   3.450   4.208 -1.5316  1.9937 -0.0171
   17C      O3'  543   2.831   3.537   4.045  0.5794  0.1799  0.5951
   18C        P  544   2.745   3.641   4.121  0.1628 -0.1967 -0.1641
   18C      OP1  545   2.625   3.571   4.181 -0.1290 -0.3506 -0.2273
   18C      OP2  546   2.723   3.746   4.026 -0.2302 -0.1297  0.4787
   18C      O5'  547   2.837   3.687   4.236  0.5352  0.4296 -0.1126
   18C      C5'  548   2.860   3.595   4.341  0.2807 -0.7335  0.7438
   18C      H5'  549   2.893   3.496   4.311  0.0181 -0.9566  1.1929
   18C     H5''  550   2.769   3.579   4.399 -1.2423 -0.7424 -1.5125
   18C      C4'  551   2.964   3.665   4.418  0.3772 -0.1540 -0.0869
   18C      H4'  552   2.981   3.614   4.512 -1.6169  0.9077  0.9292
   18C      O4'  553   3.088   3.663   4.358  0.2333 -0.4214 -0.3531
   18C      C1'  554   3.160   3.777   4.403  0.1100 -0.0295 -0.1008
   18C      H1'  555   3.258   3.747   4.441  0.2788  0.8404  0.1755
   18C       N1  556   3.182   3.876   4.297 -0.2728 -0.0190  1.1973
   18C       C6  557   3.102   3.890   4.188 -0.0021  0.2418  0.0345
   18C       H6  558   3.018   3.822   4.175 -1.2317  1.5992  0.7086
   18C       C5  559   3.128   3.977   4.089  0.5289 -0.4105 -0.2823
   18C       H5  560   3.062   3.973   4.003 -0.5346 -1.4139  0.5562
   18C       C4  561   3.244   4.058   4.098 -0.4311 -0.1453 -0.3245
   18C       N4  562   3.252   4.154   4.017  0.0575 -0.4288  0.6087
   18C      H41  563   3.190   4.156   3.936 -1.0583 -0.2239  1.4464
   18C      H42  564   3.331   4.214   4.031 -0.1130  0.2883 -1.1641
   18C       N3  565   3.307   4.062   4.213 -0.4027  0.1872 -0.1105
   18C       C2  566   3.278   3.976   4.314 -0.2336  0.5753  0.7676
   18C       O2  567   3.326   3.997   4.422  0.3411 -0.3720 -0.2937
   18C      C3'  568   2.933   3.804   4.465  0.0172 -0.1729  0.1153
   18C      H3'  569   2.914   3.866   4.377  1.0201 -2.4481 -1.8154
   18C      C2'  570   3.075   3.835   4.514 -0.4380  0.2935  0.5158
   18C      H2'  571   3.100   3.941   4.518  0.9328  0.0429 -0.7345
   18C      O2'  572   3.123   3.765   4.625  0.0471 -0.7662 -0.1085
   18C     HO2'  573   3.148   3.828   4.693  2.0227  0.9621 -2.2661
   18C      O3'  574   2.819   3.815   4.555 -0.3839  0.1528  0.1070
   19A        P  575   2.754   3.962   4.569  0.2446 -0.3074  0.0785
   19A      OP1  576   2.643   3.957   4.671 -0.1799 -0.4606  0.6136
   19A      OP2  577   2.719   4.010   4.434  0.2015 -0.0516 -0.1533
   19A      O5'  578   2.858   4.060   4.635 -0.3197 -0.4265  0.2567
   19A      C5'  579   2.904   4.059   4.767 -0.0258  0.3927 -0.3433
   19A      H5'  580   2.908   3.955   4.801 -0.2886 -0.0815 -1.7200
   19A     H5''  581   2.830   4.111   4.828  1.8067  0.5648  1.8471
   19A      C4'  582   3.043   4.126   4.786  0.6193  0.4043  0.2111
   19A      H4'  583   3.078   4.093   4.884 -1.7566 -1.8170  0.4324
   19A      O4'  584   3.132   4.093   4.685  0.2218 -0.1549 -0.3646
   19A      C1'  585   3.200   4.214   4.650  0.1142  0.1326  0.4225
   19A      H1'  586   3.308   4.198   4.648  0.2060  0.7346  0.4324
   19A       N9  587   3.153   4.261   4.514  0.1184 -0.1004  0.6009
   19A       C8  588   3.059   4.196   4.439  0.0160  0.1143 -0.5003
   19A       H8  589   3.009   4.111   4.482  0.5452 -0.7723 -1.5746
   19A       N7  590   3.036   4.252   4.324 -0.0511 -0.4890  0.4118
   19A       C5  591   3.137   4.355   4.316 -0.2050  0.2107 -0.2081
   19A       C6  592   3.191   4.432   4.215 -0.1155 -0.8519  0.1004
   19A       N6  593   3.166   4.436   4.087 -0.2952  0.3195  0.2474
   19A      H61  594   3.209   4.503   4.025  0.2001 -1.6272 -1.6215
   19A      H62  595   3.107   4.366   4.046 -0.6311  0.7865 -0.0749
   19A       N1  596   3.293   4.515   4.248 -0.1299 -0.8133 -0.5698
   19A       C2  597   3.339   4.517   4.371 -0.4876  0.3407  0.9707
   19A       H2  598   3.421   4.587   4.382 -2.1627  2.4964  0.4677
   19A       N3  599   3.304   4.438   4.472  0.0910  0.4098  0.8006
   19A       C4  600   3.200   4.361   4.436 -0.2416 -0.5795 -0.6331
   19A      C3'  601   3.034   4.275   4.783  0.5852  0.1948 -0.3929
   19A      H3'  602   2.971   4.302   4.699  0.7030  1.9607  0.0567
   19A      C2'  603   3.174   4.314   4.755 -0.0464 -0.9791  0.5897
   19A      H2'  604   3.170   4.412   4.708  0.2587 -1.8042 -1.2927
   19A      O2'  605   3.262   4.303   4.867  0.0097 -0.2711  0.2544
   19A     HO2'  606   3.350   4.319   4.832 -0.8710  1.4357 -1.3418
   19A      O3'  607   2.984   4.324   4.907 -0.5840 -0.0540  0.1270
   20G        P  608   2.896   4.462   4.918  0.3485 -0.1157  0.2130
   20G      OP1  609   2.847   4.475   5.058 -0.4966  0.1060  0.1922
   20G      OP2  610   2.799   4.476   4.805 -0.1289 -0.4205  0.2841
   20G      O5'  611   3.012   4.568   4.900 -0.2317 -0.1160 -0.2364
   20G      C5'  612   3.119   4.592   4.995  0.1585  0.2809 -0.3091
   20G      H5'  613   3.178   4.501   5.005 -1.4434 -0.8282 -0.5519
   20G     H5''  614   3.086   4.630   5.092  0.0028  0.8401 -0.5765
   20G      C4'  615   3.215   4.689   4.926  0.5778 -1.3672 -0.2748
   20G      H4'  616   3.309   4.698   4.979  0.4233  0.7334 -0.2599
   20G      O4'  617   3.234   4.648   4.787  0.1329 -0.0097  0.0489
   20G      C1'  618   3.191   4.753   4.703 -0.0799 -0.7688  0.0681
   20G      H1'  619   3.268   4.818   4.661 -1.3017  1.2601  0.8258
   20G       N9  620   3.116   4.708   4.588 -0.0833 -0.4673  0.2302
   20G       C8  621   3.021   4.607   4.572 -0.1353 -0.0890  0.2323
   20G       H8  622   2.994   4.547   4.657  0.0932  0.8603  0.9844
   20G       N7  623   2.967   4.598   4.452  0.7290 -0.4862 -0.1282
   20G       C5  624   3.034   4.705   4.383  0.3319  0.5434  0.2139
   20G       C6  625   3.035   4.754   4.247 -0.1976  0.4167 -0.1716
   20G       O6  626   2.973   4.714   4.148 -0.7451 -0.0854  0.4141
   20G       N1  627   3.114   4.857   4.218  1.1977  0.3574 -0.1964
   20G       H1  628   3.109   4.903   4.128  1.8868 -2.4365 -1.7948
   20G       C2  629   3.209   4.904   4.301  0.0549 -0.3912  0.4302
   20G       N2  630   3.273   5.015   4.271  0.1912  0.0145 -0.1036
   20G      H21  631   3.291   5.035   4.173  0.8644 -0.6405 -0.1252
   20G      H22  632   3.321   5.061   4.347 -0.5885  1.8387 -0.6613
   20G       N3  633   3.211   4.867   4.433 -1.0588 -0.2202 -0.1274
   20G       C4  634   3.121   4.767   4.468 -0.1646  0.7675 -0.2691
   20G      C3'  635   3.154   4.829   4.932 -0.2084  0.2042  0.1278
   20G      H3'  636   3.069   4.848   4.997  0.1951  0.6729  0.5269
   20G      C2'  637   3.094   4.841   4.789  0.3710 -0.6499 -0.9304
   20G      H2'  638   2.998   4.790   4.791 -0.1490  0.3049  0.6550
   20G      O2'  639   3.082   4.978   4.748  0.2315 -0.1714  0.2858
   20G     HO2'  640   3.140   5.021   4.812 -0.0649  2.7603 -1.2341
   20G      O3'  641   3.251   4.932   4.941 -0.4449 -0.0181  0.3070
   21U        P  642   3.276   5.013   5.073 -0.2528 -0.0761 -0.4039
   21U      OP1  643   3.261   4.922   5.189 -0.0183  0.7673  0.0572
   21U      OP2  644   3.197   5.138   5.064  0.0144  0.1894  0.3246
   21U      O5'  645   3.424   5.048   5.051  0.5536 -0.5496  0.5523
   21U      C5'  646   3.526   4.954   5.048 -0.3960  0.9501  0.2716
   21U      H5'  647   3.510   4.874   4.975  2.3548 -1.0938  1.7257
   21U     H5''  648   3.531   4.906   5.146 -2.0341  0.0725 -0.0338
   21U      C4'  649   3.655   5.013   5.009  0.0981  0.5111 -0.2885
   21U      H4'  650   3.731   4.941   5.041 -0.5852 -0.3232 -0.5277
   21U      O4'  651   3.667   5.034   4.869 -0.2239  0.3154 -0.5160
   21U      C1'  652   3.673   5.172   4.847 -0.1020 -0.0086 -0.1554
   21U      H1'  653   3.780   5.189   4.833 -0.4179  1.0323 -1.5814
   21U       N1  654   3.591   5.211   4.734 -0.0145 -0.2004 -0.1927
   21U       C6  655   3.460   5.160   4.729 -0.0692 -0.1325 -0.1852
   21U       H6  656   3.417   5.095   4.804  2.1104 -0.7441  0.6401
   21U       C5  657   3.389   5.180   4.616  0.4723  0.3105  1.0390
   21U       H5  658   3.289   5.142   4.597  0.6622  0.8322 -1.2614
   21U       C4  659   3.442   5.254   4.506  0.9189 -0.5007  0.0340
   21U       O4  660   3.385   5.264   4.399 -0.5995  0.8872 -0.1161
   21U       N3  661   3.568   5.305   4.523  0.5788 -0.0988  0.1973
   21U       H3  662   3.598   5.358   4.443 -1.4810 -0.7432 -1.0930
   21U       C2  663   3.649   5.281   4.634  0.2783 -0.5100  0.0597
   21U       O2  664   3.764   5.322   4.644 -0.1195  0.2255 -0.4242
   21U      C3'  665   3.674   5.146   5.081 -0.7293 -0.3378  0.0503
   21U      H3'  666   3.611   5.153   5.170 -1.6322 -0.6073 -0.5543
   21U      C2'  667   3.633   5.245   4.973  0.4525 -0.5029 -0.2081
   21U      H2'  668   3.525   5.258   4.971  0.4114 -0.0386  2.2019
   21U      O2'  669   3.710   5.365   4.969 -0.6023 -0.2717  0.0895
   21U     HO2'  670   3.710   5.404   5.056  0.9814  0.5816 -0.2456
   21U      O3'  671   3.809   5.162   5.104  0.3185  0.2718  0.1363
   22U        P  672   3.861   5.179   5.255 -0.5102  0.6568 -0.3459
   22U      OP1  673   3.770   5.272   5.325  0.1012 -0.5561 -0.0809
   22U      OP2  674   4.005   5.210   5.249  0.1529 -0.4752 -0.2396
   22U      O5'  675   3.848   5.025   5.314 -0.2132 -0.2785 -0.2272
   22U      C5'  676   3.928   4.918   5.278 -0.6038 -0.0810  0.4694
   22U      H5'  677   4.030   4.948   5.304 -0.4338 -1.2961  1.3277
   22U     H5''  678   3.916   4.901   5.171 -0.0366  2.7018 -0.0935
   22U      C4'  679   3.895   4.795   5.356  0.5847 -0.3053 -0.3240
   22U      H4'  680   3.976   4.722   5.345  0.7966 -0.1778  0.3537
   22U      O4'  681   3.879   4.827   5.495 -0.0096  0.1005  0.4519
   22U      C1'  682   3.751   4.786   5.545  0.5968 -0.2854  0.2052
   22U      H1'  683   3.750   4.684   5.582 -0.4185  0.3521  2.0416
   22U       N1  684   3.698   4.893   5.640 -0.6201  0.9189  0.8382
   22U       C6  685   3.687   5.021   5.598  0.6308  0.3473 -0.2191
   22U       H6  686   3.718   5.053   5.499  0.9401  0.9828  0.0726
   22U       C5  687   3.647   5.120   5.686 -0.9392 -0.4690  0.1401
   22U       H5  688   3.641   5.222   5.652  1.5995 -0.7139 -1.3442
   22U       C4  689   3.610   5.091   5.819  0.3711  0.5792 -0.3410
   22U       O4  690   3.573   5.171   5.909 -1.1953  0.3168 -0.2016
   22U       N3  691   3.611   4.949   5.848 -0.0884 -0.0260 -0.2103
   22U       H3  692   3.594   4.922   5.944 -0.9204 -0.2830 -0.4279
   22U       C2  693   3.661   4.852   5.765  0.1535  0.2118  0.2000
   22U       O2  694   3.652   4.732   5.793  0.6569  0.1438  0.3944
   22U      C3'  695   3.764   4.726   5.315  0.6573  0.1311 -0.8751
   22U      H3'  696   3.740   4.735   5.209 -0.5307  0.3140 -0.6001
   22U      C2'  697   3.667   4.779   5.426 -0.0089  0.1921  0.5574
   22U      H2'  698   3.631   4.872   5.383  0.0033  0.7241  1.6734
   22U      O2'  699   3.562   4.692   5.444  0.6574  0.0126 -0.1711
   22U     HO2'  700   3.501   4.696   5.371  0.9529  0.7513 -0.3926
   22U      O3'  701   3.791   4.584   5.338 -0.6628 -0.4631  0.0020
   23A        P  702   3.841   4.507   5.214 -0.1253  0.0430 -0.2456
   23A      OP1  703   3.838   4.361   5.244  0.2493  0.0242  0.6734
   23A      OP2  704   3.965   4.560   5.155  0.1611 -0.6067  0.0631
   23A      O5'  705   3.722   4.527   5.102  0.1344 -0.0716  0.5133
   23A      C5'  706   3.588   4.488   5.119  0.6282 -0.3346  0.8382
   23A      H5'  707   3.542   4.564   5.183  0.7551 -2.2178  3.3076
   23A     H5''  708   3.584   4.394   5.173  1.8118  0.2724  2.0480
   23A      C4'  709   3.522   4.478   4.983  0.0068 -0.0135  0.0808
   23A      H4'  710   3.415   4.455   4.986 -0.3547  1.5035 -0.1206
   23A      O4'  711   3.527   4.610   4.936 -0.3563  0.3269  0.3314
   23A      C1'  712   3.557   4.605   4.799 -0.0142  0.1042  0.2586
   23A      H1'  713   3.474   4.649   4.744  1.7222  0.4732 -2.1964
   23A       N9  714   3.672   4.686   4.766 -0.4575  0.3375 -0.0109
   23A       C8  715   3.797   4.689   4.821 -0.1165 -0.2183 -0.1234
   23A       H8  716   3.828   4.613   4.891  1.9326 -1.1938 -1.9521
   23A       N7  717   3.865   4.790   4.776 -0.0530 -0.6477  0.5026
   23A       C5  718   3.786   4.843   4.674  0.4387  0.5229 -0.3618
   23A       C6  719   3.792   4.954   4.594 -0.6314 -0.2089 -0.3477
   23A       N6  720   3.898   5.032   4.571 -0.3240  0.2109  0.2146
   23A      H61  721   3.888   5.114   4.512 -3.7937 -0.6914 -0.6483
   23A      H62  722   3.975   5.015   4.634 -1.5593 -0.7767  1.5250
   23A       N1  723   3.692   4.989   4.515 -0.6697  0.0754  0.3651
   23A       C2  724   3.580   4.914   4.521  0.2242  0.0447  0.2613
   23A       H2  725   3.502   4.948   4.454  1.4298  1.4959 -0.4809
   23A       N3  726   3.559   4.807   4.592 -0.2927 -0.6864 -0.4546
   23A       C4  727   3.668   4.780   4.673 -0.0342  0.0282 -0.3908
   23A      C3'  728   3.599   4.397   4.882  0.0292 -0.3638 -0.3871
   23A      H3'  729   3.707   4.401   4.899  0.1110 -0.8420 -0.7876
   23A      C2'  730   3.564   4.460   4.751  0.8675 -0.2872  0.3571
   23A      H2'  731   3.637   4.443   4.672 -0.4620  0.9210 -1.1871
   23A      O2'  732   3.433   4.427   4.712  0.3061  0.5064  0.3892
   23A     HO2'  733   3.400   4.471   4.634  0.5637 -1.8832 -1.1800
   23A      O3'  734   3.554   4.265   4.869  0.0192 -0.3990 -0.1378
   24A        P  735   3.655   4.149   4.839  0.3232  0.0458 -0.0595
   24A      OP1  736   3.790   4.189   4.866  0.2549  0.5818 -0.2554
   24A      OP2  737   3.631   4.083   4.710 -1.1608  0.4198  0.1906
   24A      O5'  738   3.613   4.048   4.950 -0.0035 -0.0884 -0.4091
   24A      C5'  739   3.632   4.082   5.087  0.5025 -0.3297  0.1187
   24A      H5'  740   3.594   4.183   5.102 -0.7170 -0.6395 -0.7483
   24A     H5''  741   3.738   4.073   5.112  0.1807 -1.4935  1.1342
   24A      C4'  742   3.550   4.005   5.190  0.2778 -0.1102  0.2372
   24A      H4'  743   3.595   4.020   5.288 -0.1284 -1.7225  0.7145
   24A      O4'  744   3.407   4.026   5.185 -0.0132 -0.1883 -0.3500
   24A      C1'  745   3.346   3.896   5.207 -0.0708  0.7362 -0.2684
   24A      H1'  746   3.279   3.887   5.292  3.5132 -2.2753  2.6340
   24A       N9  747   3.265   3.862   5.092  0.3665  0.3928 -0.0514
   24A       C8  748   3.263   3.913   4.966  0.3426 -0.1428 -0.4269
   24A       H8  749   3.341   3.982   4.935  0.1960  0.2756  0.1165
   24A       N7  750   3.172   3.864   4.887  0.5363 -0.7082 -0.2342
   24A       C5  751   3.105   3.773   4.968  0.2783 -0.3112  0.1211
   24A       C6  752   2.992   3.688   4.946  0.8616 -0.6676 -0.0756
   24A       N6  753   2.925   3.684   4.834 -0.2831  0.1857 -0.1179
   24A      H61  754   2.842   3.627   4.829 -1.2754  1.5936 -0.4047
   24A      H62  755   2.962   3.742   4.760 -2.3259  1.2049 -0.4381
   24A       N1  756   2.940   3.619   5.051  0.5153 -0.3610  0.5641
   24A       C2  757   3.007   3.623   5.168 -0.8642  0.2067  0.1183
   24A       H2  758   2.968   3.571   5.255  0.9189 -0.9562  0.2721
   24A       N3  759   3.118   3.692   5.199 -0.1877 -0.4686  0.3562
   24A       C4  760   3.164   3.767   5.093  0.6499  0.2618  0.3420
   24A      C3'  761   3.568   3.858   5.149  0.3610  0.6871  0.0509
   24A      H3'  762   3.554   3.841   5.042  0.1514  2.0494 -0.1556
   24A      C2'  763   3.455   3.790   5.222 -0.0487  0.5700  0.1753
   24A      H2'  764   3.421   3.703   5.165 -1.6108  1.4863 -0.3694
   24A      O2'  765   3.484   3.777   5.362  0.0255  0.6638  0.0415
   24A     HO2'  766   3.421   3.718   5.402  2.3028 -0.9631  1.4706
   24A      O3'  767   3.702   3.823   5.186  0.1330  0.2047 -0.0596
   25C        P  768   3.776   3.698   5.106  0.3331 -0.0723  0.2207
   25C      OP1  769   3.906   3.660   5.162 -0.8166  0.5617 -0.2391
   25C      OP2  770   3.763   3.710   4.957  0.3169  0.2979  0.5219
   25C      O5'  771   3.673   3.589   5.147 -0.1568  0.8422 -0.2946
   25C      C5'  772   3.677   3.536   5.273 -0.0486  0.4654 -0.4364
   25C      H5'  773   3.658   3.618   5.342  2.1838  0.8201 -0.1768
   25C     H5''  774   3.772   3.488   5.296 -0.5565 -0.3080  0.0971
   25C      C4'  775   3.574   3.433   5.297 -0.1734  0.4135  0.5016
   25C      H4'  776   3.569   3.395   5.399  0.4245 -0.7190  0.1370
   25C      O4'  777   3.448   3.484   5.265 -0.2230  0.0082 -0.1422
   25C      C1'  778   3.368   3.377   5.198  0.2899  1.0307 -0.3620
   25C      H1'  779   3.279   3.344   5.251  1.2124 -2.7522 -0.8644
   25C       N1  780   3.327   3.411   5.061 -0.4243  0.0014  0.5370
   25C       C6  781   3.388   3.502   4.982  0.6533  0.5083  0.3276
   25C       H6  782   3.474   3.558   5.014  0.2014  1.1084  0.5019
   25C       C5  783   3.339   3.531   4.856  0.1576  0.2072 -0.2116
   25C       H5  784   3.388   3.613   4.805 -1.3664  2.0755  1.1994
   25C       C4  785   3.219   3.461   4.819 -0.3825  0.1140  0.1689
   25C       N4  786   3.151   3.492   4.715 -0.2086  0.0890 -0.0893
   25C      H41  787   3.166   3.574   4.658  0.7298 -0.9230 -1.3483
   25C      H42  788   3.069   3.434   4.704  0.0755 -0.1143 -1.3270
   25C       N3  789   3.161   3.378   4.896 -0.1703 -0.4303  0.4597
   25C       C2  790   3.213   3.343   5.011  1.2401  0.1718 -0.3337
   25C       O2  791   3.149   3.253   5.068  0.1585 -0.6509  0.2643
   25C      C3'  792   3.589   3.319   5.196 -0.1290 -0.3400 -0.6360
   25C      H3'  793   3.604   3.356   5.095 -2.4271  0.7536 -0.6212
   25C      C2'  794   3.454   3.253   5.200 -0.6681 -0.5698 -0.5383
   25C      H2'  795   3.431   3.194   5.111 -0.5115  1.6892 -2.1637
   25C      O2'  796   3.426   3.176   5.313 -0.4142  0.2747  0.1125
   25C     HO2'  797   3.487   3.102   5.305 -2.2572 -1.3766  0.4672
   25C      O3'  798   3.695   3.233   5.234 -0.8513 -0.1677 -0.7699
   26A        P  799   3.765   3.151   5.131 -0.4294 -0.4180 -0.0682
   26A      OP1  800   3.861   3.060   5.195  0.1494  0.0684 -0.1339
   26A      OP2  801   3.822   3.244   5.030 -0.3288  0.1409 -0.0597
   26A      O5'  802   3.642   3.074   5.072 -0.8433 -0.1190 -0.4835
   26A      C5'  803   3.637   3.013   4.943 -0.2191 -0.3870 -0.0549
   26A      H5'  804   3.670   2.909   4.949  0.3525 -0.1435  1.3407
   26A     H5''  805   3.688   3.078   4.872 -1.0692  1.0504  0.6059
   26A      C4'  806   3.492   3.006   4.906 -0.9644  0.0148 -0.2396
   26A      H4'  807   3.441   2.962   4.991  1.1774 -1.5465  0.3393
   26A      O4'  808   3.424   3.130   4.894 -0.4399 -0.2973 -0.0533
   26A      C1'  809   3.343   3.138   4.785  0.0667 -0.1466  0.2283
   26A      H1'  810   3.243   3.176   4.808 -0.1443 -2.1046  3.0954
   26A       N9  811   3.386   3.232   4.682  0.5131  0.6345 -0.0801
   26A       C8  812   3.488   3.312   4.688  0.0795 -0.1139 -0.3392
   26A       H8  813   3.558   3.314   4.770 -0.6009  2.6810  0.3113
   26A       N7  814   3.495   3.395   4.589  0.0910  0.4729 -0.8231
   26A       C5  815   3.379   3.378   4.519 -0.7460 -0.5621  0.3026
   26A       C6  816   3.323   3.443   4.404  0.0285 -1.4594  0.4381
   26A       N6  817   3.375   3.544   4.340 -0.2241  0.0579  0.1781
   26A      H61  818   3.346   3.557   4.244  1.9939  1.4033 -0.3710
   26A      H62  819   3.463   3.573   4.379  0.4086 -1.3380 -0.1722
   26A       N1  820   3.209   3.394   4.354 -0.5667  0.3045  0.4563
   26A       C2  821   3.156   3.290   4.420  0.4816 -0.0303 -0.1989
   26A       H2  822   3.057   3.263   4.385  0.6419 -1.3825  0.3275
   26A       N3  823   3.197   3.229   4.530  0.0174 -0.2707  0.3472
   26A       C4  824   3.313   3.271   4.571  0.5900 -0.2042  0.1347
   26A      C3'  825   3.458   2.931   4.778 -0.0047 -0.2710  0.1962
   26A      H3'  826   3.539   2.951   4.708 -0.0557 -1.3058 -0.1747
   26A      C2'  827   3.326   2.993   4.734 -1.0442 -0.3327 -0.8782
   26A      H2'  828   3.325   2.998   4.625 -2.7461 -0.4652 -0.8980
   26A      O2'  829   3.210   2.931   4.791 -0.2535  0.0992  0.0250
   26A     HO2'  830   3.243   2.850   4.831  1.5597  0.0597 -1.4372
   26A      O3'  831   3.436   2.797   4.807 -0.1251 -0.4220  0.5599
   27A        P  832   3.479   2.687   4.703  0.0400  0.0904 -0.0119
   27A      OP1  833   3.422   2.567   4.757  0.0581  0.5453  0.5924
   27A      OP2  834   3.623   2.691   4.670 -0.0597  0.2595 -0.0760
   27A      O5'  835   3.395   2.721   4.566 -0.1618 -0.2342  0.4011
   27A      C5'  836   3.258   2.696   4.565  0.1663  0.5572 -0.0792
   27A      H5'  837   3.205   2.742   4.648  0.1394 -0.6593  0.6134
   27A     H5''  838   3.248   2.587   4.573  0.6329  0.5446  0.3481
   27A      C4'  839   3.192   2.759   4.438 -0.1075  0.3898  0.3956
   27A      H4'  840   3.087   2.735   4.425  0.0572  0.3755 -1.0503
   27A      O4'  841   3.203   2.901   4.445  0.2825  0.3575  0.1270
   27A      C1'  842   3.218   2.945   4.314 -0.2493  0.0490  0.5350
   27A      H1'  843   3.134   3.005   4.281  0.6718  1.0483 -0.0319
   27A       N9  844   3.349   3.022   4.296  0.1058  0.0236  0.1900
   27A       C8  845   3.456   3.023   4.379  0.0750  0.3068 -0.2263
   27A       H8  846   3.454   2.953   4.461 -0.6847 -1.0698 -1.3695
   27A       N7  847   3.538   3.130   4.368 -0.0056 -0.4704  0.2474
   27A       C5  848   3.487   3.186   4.249  0.0657  0.6051  0.3312
   27A       C6  849   3.518   3.295   4.166 -0.1409 -0.1284  0.0696
   27A       N6  850   3.606   3.385   4.191 -0.2656  0.3673  0.1393
   27A      H61  851   3.611   3.468   4.134  1.9926  0.9788  1.1433
   27A      H62  852   3.662   3.371   4.274 -0.4788  0.7199  0.3434
   27A       N1  853   3.441   3.334   4.067  0.3935  0.5089  0.2567
   27A       C2  854   3.329   3.257   4.045 -0.3115 -0.4536 -0.4071
   27A       H2  855   3.262   3.296   3.970 -1.0484  1.6185  1.2489
   27A       N3  856   3.283   3.151   4.109 -0.1538 -0.6628 -0.3426
   27A       C4  857   3.367   3.125   4.211  0.2094  0.5321  0.4244
   27A      C3'  858   3.273   2.713   4.312  0.4126  0.4177 -0.2459
   27A      H3'  859   3.381   2.726   4.321  0.5311  1.3869 -2.3910
   27A      C2'  860   3.232   2.824   4.219  0.1292  0.0510 -0.3455
   27A      H2'  861   3.308   2.847   4.145  0.2392 -1.7706 -0.8407
   27A      O2'  862   3.110   2.799   4.162 -0.0295 -0.1361  0.8660
   27A     HO2'  863   3.066   2.737   4.220  0.4566  1.2730  2.8420
   27A      O3'  864   3.233   2.584   4.273 -0.7343 -0.1022  0.1070
   28A        P  865   3.324   2.490   4.184 -0.2629 -0.4650 -0.0383
   28A      OP1  866   3.292   2.351   4.213  0.1183 -0.1227 -0.4788
   28A      OP2  867   3.465   2.538   4.198 -0.0185  0.0780 -0.2872
   28A      O5'  868   3.276   2.526   4.038 -0.1231  0.1880  0.1918
   28A      C5'  869   3.143   2.516   4.005  0.4681  0.1863  0.0790
   28A      H5'  870   3.090   2.592   4.062  1.9372 -0.1207  1.9401
   28A     H5''  871   3.106   2.415   4.021  1.5864 -0.3464 -0.5495
   28A      C4'  872   3.114   2.544   3.855 -0.9596 -0.3302 -0.0388
   28A      H4'  873   3.012   2.515   3.829 -1.7296  2.7101 -0.7868
   28A      O4'  874   3.118   2.685   3.834 -0.5366 -0.4535  0.8892
   28A      C1'  875   3.235   2.702   3.756 -0.7446  0.1306  0.5421
   28A      H1'  876   3.202   2.707   3.653  0.0606 -2.2736  0.0944
   28A       N9  877   3.307   2.827   3.775  0.4971  0.7325  0.0359
   28A       C8  878   3.433   2.848   3.827 -0.0041 -0.0673  0.3766
   28A       H8  879   3.501   2.769   3.855  1.9161  0.2026 -3.0187
   28A       N7  880   3.469   2.971   3.823  0.6429  0.2901 -0.8875
   28A       C5  881   3.355   3.034   3.772 -0.0965 -0.5700 -0.2837
   28A       C6  882   3.325   3.166   3.727  0.0545  0.0045  0.6461
   28A       N6  883   3.413   3.266   3.735  0.3144 -0.4123  0.8112
   28A      H61  884   3.386   3.351   3.688  0.5483 -1.4627 -1.3338
   28A      H62  885   3.508   3.243   3.758  0.5597  0.4367  0.6880
   28A       N1  886   3.218   3.192   3.652 -0.5444  0.5451 -0.3681
   28A       C2  887   3.132   3.097   3.635  0.1101 -0.1701  0.0986
   28A       H2  888   3.045   3.126   3.579  0.7968  2.1480  0.1309
   28A       N3  889   3.151   2.971   3.670  0.6076 -0.0729 -0.2029
   28A       C4  890   3.264   2.944   3.734  0.1275 -0.3473 -0.9796
   28A      C3'  891   3.226   2.470   3.774  0.0174 -0.1709 -0.4768
   28A      H3'  892   3.257   2.382   3.831 -1.0818  0.0001  0.4405
   28A      C2'  893   3.337   2.578   3.766  0.3805  0.2833 -1.3318
   28A      H2'  894   3.391   2.586   3.860 -0.7637 -0.5804 -0.5768
   28A      O2'  895   3.420   2.581   3.659  0.0908 -0.0023  0.5043
   28A     HO2'  896   3.508   2.546   3.676 -0.1649 -0.4271  0.9995
   28A      O3'  897   3.166   2.437   3.646  0.4192 -0.7391 -0.0950
   29A        P  898   3.197   2.294   3.583 -0.0244  0.6845  0.2209
   29A      OP1  899   3.104   2.192   3.638  0.6454  0.3539  0.3513
   29A      OP2  900   3.345   2.277   3.594 -0.1678  0.2768  0.2151
   29A      O5'  901   3.159   2.341   3.437  0.6188  0.0772 -0.3303
   29A      C5'  902   3.257   2.414   3.362  0.7640 -0.6350  0.0858
   29A      H5'  903   3.292   2.352   3.280 -1.6704 -3.4946  1.0206
   29A     H5''  904   3.341   2.451   3.421 -0.2701  0.1163  1.1267
   29A      C4'  905   3.186   2.536   3.312 -0.0047 -0.5186 -0.1657
   29A      H4'  906   3.092   2.511   3.263  0.2177 -0.8566 -0.4250
   29A      O4'  907   3.172   2.642   3.406 -0.0626  0.6113 -0.1661
   29A      C1'  908   3.208   2.768   3.347  0.1180 -0.5986  0.4478
   29A      H1'  909   3.130   2.841   3.369  0.6854 -0.0530  0.6873
   29A       N9  910   3.340   2.826   3.380 -0.2281 -0.0139 -0.3963
   29A       C8  911   3.443   2.771   3.450  0.1003  0.7704 -0.3663
   29A       H8  912   3.449   2.664   3.460 -0.5680  0.3939 -3.0038
   29A       N7  913   3.524   2.859   3.500 -0.3452  0.2764 -1.0377
   29A       C5  914   3.480   2.983   3.455  0.0748  0.2741 -0.2190
   29A       C6  915   3.520   3.116   3.452 -0.6535  0.2370 -0.5457
   29A       N6  916   3.629   3.157   3.516 -0.0580 -0.0959 -0.2206
   29A      H61  917   3.667   3.250   3.505 -0.9300  0.2582 -0.3303
   29A      H62  918   3.678   3.085   3.568  0.1792  0.2527  0.0447
   29A       N1  919   3.455   3.207   3.387 -0.2589  0.2677 -0.2729
   29A       C2  920   3.345   3.169   3.319 -0.2254  0.0002 -0.2778
   29A       H2  921   3.299   3.247   3.259  2.7075  2.6482  0.6497
   29A       N3  922   3.290   3.051   3.313 -0.0838 -0.3813 -0.7047
   29A       C4  923   3.365   2.958   3.380  0.8274 -0.6326  0.3510
   29A      C3'  924   3.280   2.593   3.203 -0.2854 -1.0471  0.6189
   29A      H3'  925   3.384   2.604   3.232 -0.2064 -1.5073  0.5108
   29A      C2'  926   3.226   2.739   3.202  0.1127  0.5118 -0.4886
   29A      H2'  927   3.297   2.804   3.150  0.6702 -0.1598 -0.5850
   29A      O2'  928   3.099   2.740   3.141  0.2120  0.0455 -0.3209
   29A     HO2'  929   3.083   2.655   3.099 -0.2238 -0.7297  1.3540
   29A      O3'  930   3.260   2.522   3.084  0.0259  0.0772 -0.6250
   30C        P  931   3.380   2.502   2.978 -0.2036  0.2904  0.0097
   30C      OP1  932   3.351   2.409   2.868 -0.0721  0.4479  0.2577
   30C      OP2  933   3.507   2.476   3.051 -0.0656  0.0910  0.3040
   30C      O5'  934   3.402   2.646   2.918 -0.2223 -0.6135  0.3855
   30C      C5'  935   3.308   2.713   2.832  0.3362  0.3935 -0.1520
   30C      H5'  936   3.208   2.710   2.874 -0.1878 -0.2030 -1.3832
   30C     H5''  937   3.314   2.665   2.734  0.8279 -0.0030  0.0644
   30C      C4'  938   3.344   2.860   2.824  0.3134 -0.2986  0.2832
   30C      H4'  939   3.270   2.912   2.764  0.3313 -0.1712  0.3711
   30C      O4'  940   3.338   2.917   2.952 -0.1452  0.4413  0.0225
   30C      C1'  941   3.422   3.031   2.955 -1.0848  0.0612 -1.0512
   30C      H1'  942   3.365   3.123   2.965 -0.0737  0.7654 -1.6113
   30C       N1  943   3.530   3.007   3.062  0.1542  1.0236  0.4397
   30C       C6  944   3.557   2.886   3.124 -0.4283  0.0584 -0.1263
   30C       H6  945   3.496   2.801   3.096 -1.2241  0.1448  1.2516
   30C       C5  946   3.658   2.863   3.211  0.1729  0.0581  0.5008
   30C       H5  947   3.677   2.764   3.249  0.8744  1.0301  2.8516
   30C       C4  948   3.733   2.972   3.246  0.1773  0.3347 -0.0336
   30C       N4  949   3.835   2.953   3.327  0.3201 -0.3259  0.4995
   30C      H41  950   3.836   2.862   3.370  0.3708 -0.9187 -0.7146
   30C      H42  951   3.875   3.036   3.369  1.2574  2.0977 -4.3783
   30C       N3  952   3.714   3.091   3.188 -0.4010 -0.6919 -0.1846
   30C       C2  953   3.618   3.110   3.093 -0.2415 -0.4893  0.4319
   30C       O2  954   3.612   3.216   3.032  0.1728  0.2264  0.2582
   30C      C3'  955   3.482   2.892   2.775 -0.2190  0.3335  0.1911
   30C      H3'  956   3.561   2.829   2.815 -0.5771  0.3815  0.9861
   30C      C2'  957   3.487   3.040   2.819 -0.1226  0.3879  0.1195
   30C      H2'  958   3.588   3.083   2.822  0.1973 -0.1559 -1.5828
   30C      O2'  959   3.409   3.121   2.726  0.5051  0.0466  0.0782
   30C     HO2'  960   3.371   3.064   2.659 -0.8280  1.3455 -0.3247
   30C      O3'  961   3.469   2.873   2.639  0.0864 -0.2074 -0.1991
   31A        P  962   3.591   2.817   2.556 -0.1026  0.1736 -0.3079
   31A      OP1  963   3.542   2.794   2.420 -0.2309 -0.4736  0.6108
   31A      OP2  964   3.656   2.711   2.633  0.8319  0.0532  0.0107
   31A      O5'  965   3.685   2.945   2.547  0.0748  0.4251 -0.1409
   31A      C5'  966   3.641   3.065   2.484 -0.9179  0.2067  0.0525
   31A      H5'  967   3.566   3.118   2.542 -1.8869 -1.2271  0.1716
   31A     H5''  968   3.602   3.046   2.385  1.6275 -0.6355 -0.8793
   31A      C4'  969   3.766   3.155   2.456 -0.1409  0.8031  0.9246
   31A      H4'  970   3.731   3.228   2.384 -0.6842 -1.1853 -0.9353
   31A      O4'  971   3.805   3.223   2.575  0.6075 -0.1809  0.2769
   31A      C1'  972   3.934   3.182   2.623  0.5600  0.1170 -0.4646
   31A      H1'  973   4.017   3.252   2.607  0.3361  0.6039  0.4226
   31A       N9  974   3.931   3.133   2.761  0.6010  0.0933 -0.0019
   31A       C8  975   3.871   3.018   2.816 -0.2807 -0.2522 -0.1615
   31A       H8  976   3.805   2.946   2.770  1.0883 -1.6498  0.0011
   31A       N7  977   3.903   2.999   2.942 -0.1409  0.2230 -0.0084
   31A       C5  978   3.996   3.099   2.968  0.1943 -0.1952  0.4745
   31A       C6  979   4.073   3.149   3.074 -1.0346  0.7569 -0.3420
   31A       N6  980   4.074   3.097   3.193 -0.5513  0.2281 -0.1158
   31A      H61  981   4.143   3.129   3.259  0.2163 -2.8581  0.7132
   31A      H62  982   3.993   3.041   3.210 -0.4253 -0.4722 -1.6207
   31A       N1  983   4.164   3.245   3.068  0.2120 -0.4043  0.1664
   31A       C2  984   4.172   3.307   2.956 -0.3136 -0.2473  0.3096
   31A       H2  985   4.245   3.386   2.960  0.0399 -0.5695  0.2995
   31A       N3  986   4.096   3.283   2.849  0.0484  0.8731 -0.2765
   31A       C4  987   4.011   3.179   2.858 -0.1922  0.6998  0.1876
   31A      C3'  988   3.888   3.075   2.401  1.2451 -0.3234 -0.4100
   31A      H3'  989   3.869   2.974   2.364 -0.4868 -0.5877  1.0526
   31A      C2'  990   3.961   3.066   2.531 -0.2746  0.4623 -0.2090
   31A      H2'  991   3.917   2.977   2.577 -0.6664 -0.5526 -2.4336
   31A      O2'  992   4.101   3.041   2.508  0.4095  0.1671 -0.3585
   31A     HO2'  993   4.134   3.005   2.591 -1.6080  0.5679  0.6718
   31A      O3'  994   3.942   3.164   2.304 -0.6000 -0.5615 -0.4002
   32A        P  995   3.991   3.101   2.171 -0.4922  0.1645 -0.2394
   32A      OP1  996   3.869   3.091   2.088  0.0627  0.3542 -0.5899
   32A      OP2  997   4.082   2.989   2.191 -0.0644  0.5812 -0.0546
   32A      O5'  998   4.077   3.210   2.103  0.2294 -0.1370 -0.4918
   32A      C5'  999   4.024   3.320   2.041 -0.4484  0.5069  0.0767
   32A      H5' 1000   3.927   3.348   2.082 -0.9572 -1.4862  0.3548
   32A     H5'' 1001   4.007   3.293   1.937 -0.6617 -1.3195  0.5427
   32A      C4' 1002   4.124   3.431   2.034  0.2015  0.5429  0.1259
   32A      H4' 1003   4.089   3.506   1.962 -1.0618 -0.4292 -0.2975
   32A      O4' 1004   4.134   3.494   2.160 -0.0039  0.3852  0.2059
   32A      C1' 1005   4.268   3.538   2.173  0.0006  0.2178 -0.2426
   32A      H1' 1006   4.271   3.645   2.193  2.4699 -0.1323  1.7207
   32A       N9 1007   4.331   3.468   2.285  0.1060  0.1538  0.2121
   32A       C8 1008   4.285   3.349   2.338 -0.3149 -0.0247 -0.1554
   32A       H8 1009   4.193   3.297   2.315 -1.4888  1.5386  0.7872
   32A       N7 1010   4.364   3.315   2.436  0.2792 -0.0454  0.2905
   32A       C5 1011   4.469   3.406   2.436 -0.0232  0.8993 -1.4683
   32A       C6 1012   4.579   3.420   2.515 -0.5662 -0.9061 -0.8436
   32A       N6 1013   4.619   3.346   2.614  0.3468  0.5241 -0.0258
   32A      H61 1014   4.700   3.376   2.666  0.1528  2.4794 -0.7322
   32A      H62 1015   4.548   3.279   2.641  0.6110  0.4192  0.4064
   32A       N1 1016   4.659   3.523   2.496 -0.5295  0.2041 -0.2123
   32A       C2 1017   4.631   3.612   2.403 -0.3211  0.1982  0.3839
   32A       H2 1018   4.694   3.694   2.375 -1.0463  0.8926  0.7532
   32A       N3 1019   4.526   3.609   2.323  0.0991  0.7098  0.0662
   32A       C4 1020   4.451   3.500   2.345  0.6991 -1.0474 -0.3824
   32A      C3' 1021   4.266   3.387   1.994 -0.0085  0.4901  0.1347
   32A      H3' 1022   4.301   3.303   2.054  0.3454  0.1291 -0.5629
   32A      C2' 1023   4.341   3.500   2.044  0.6882 -1.5505 -0.2533
   32A      H2' 1024   4.444   3.468   2.057  0.1866 -2.6648  1.2553
   32A      O2' 1025   4.324   3.610   1.955 -0.3680 -0.0040 -0.2136
   32A     HO2' 1026   4.340   3.583   1.864  0.4079 -0.0912 -0.0594
   32A      O3' 1027   4.285   3.371   1.857 -0.5792  0.5409 -0.1267
   33G3       P 1028   4.337   3.240   1.801  0.2325  0.1325 -0.2218
   33G3     OP1 1029   4.382   3.260   1.664  0.6886  0.0265  0.7085
   33G3     OP2 1030   4.228   3.141   1.820  0.1725  0.2746 -0.2130
   33G3     O5' 1031   4.468   3.207   1.890  0.1452  0.1216  0.1607
   33G3     C5' 1032   4.576   3.299   1.870  0.5536 -0.7891  0.0916
   33G3     H5' 1033   4.541   3.402   1.870  0.9295 -0.6594  0.2140
   33G3    H5'' 1034   4.614   3.281   1.769 -2.2115 -0.0185 -1.1971
   33G3     C4' 1035   4.685   3.282   1.972 -0.8220  0.1898  0.7850
   33G3     H4' 1036   4.762   3.346   1.929  0.4032 -2.7236 -1.7869
   33G3     O4' 1037   4.640   3.322   2.102 -0.4817 -0.1588  0.2258
   33G3     C1' 1038   4.697   3.225   2.182  0.4660 -0.2553  0.3981
   33G3     H1' 1039   4.738   3.279   2.267  1.0276  0.5456 -0.3688
   33G3      N9 1040   4.593   3.132   2.238 -0.6069  0.3974 -0.0750
   33G3      C8 1041   4.473   3.085   2.192  0.1511 -0.5586  0.8372
   33G3      H8 1042   4.431   3.111   2.096 -1.6306  0.0982  1.7430
   33G3      N7 1043   4.415   2.991   2.263  0.3040  0.3185 -0.1233
   33G3      C5 1044   4.496   2.985   2.371 -0.1912 -0.0724 -0.1972
   33G3      C6 1045   4.493   2.903   2.486 -0.3327 -0.1246 -0.1067
   33G3      O6 1046   4.409   2.814   2.514 -0.0738  0.0231 -0.0501
   33G3      N1 1047   4.593   2.932   2.577 -0.8510 -0.3468 -0.1973
   33G3      H1 1048   4.590   2.889   2.668 -0.8051 -0.9166 -0.4621
   33G3      C2 1049   4.692   3.023   2.558 -0.1158 -0.7539  0.8756
   33G3      N2 1050   4.767   3.057   2.661  0.5156  0.0761 -0.0684
   33G3     H21 1051   4.768   2.997   2.742 -0.9986 -2.4532 -1.8058
   33G3     H22 1052   4.843   3.120   2.639  1.7428 -1.1975  0.3730
   33G3      N3 1053   4.711   3.084   2.441 -0.9533  0.4798 -0.6086
   33G3      C4 1054   4.608   3.064   2.353 -0.5715 -0.6716 -0.2153
   33G3     C3' 1055   4.744   3.137   1.976  0.3444  0.1598 -0.8296
   33G3     H3' 1056   4.664   3.064   1.967 -0.4456  1.2086 -2.9569
   33G3     C2' 1057   4.807   3.142   2.117  0.4517 -0.3459 -1.1681
   33G3     H2' 1058   4.825   3.039   2.149  0.7535 -0.0695 -0.4154
   33G3     O2' 1059   4.925   3.221   2.125  0.1922  0.5791 -0.3615
   33G3    HO2' 1060   4.990   3.203   2.057  0.6002 -1.5836  0.5071
   33G3     O3' 1061   4.839   3.114   1.873  0.1127  0.2426  0.2241
   33G3    HO3' 1062   4.883   3.032   1.896 -0.0217  0.8666  3.1989
   7.64167   7.59560   7.60726
