GROningen MAchine for Chemical Simulation
 1944
    1U5    HO5'    1   7.096   9.006   6.587
    1U5     O5'    2   7.113   9.054   6.668
    1U5     C5'    3   7.202   9.165   6.664
    1U5     H5'    4   7.165   9.239   6.593
    1U5    H5''    5   7.300   9.130   6.631
    1U5     C4'    6   7.216   9.229   6.801
    1U5     H4'    7   7.282   9.316   6.794
    1U5     O4'    8   7.088   9.283   6.841
    1U5     C1'    9   7.068   9.265   6.981
    1U5     H1'   10   7.040   9.358   7.029
    1U5      N1   11   6.948   9.177   7.007
    1U5      C6   12   6.903   9.090   6.909
    1U5      H6   13   6.959   9.085   6.816
    1U5      C5   14   6.798   9.010   6.925
    1U5      H5   15   6.765   8.943   6.846
    1U5      C4   16   6.726   9.011   7.050
    1U5      O4   17   6.628   8.942   7.078
    1U5      N3   18   6.776   9.100   7.144
    1U5      H3   19   6.724   9.103   7.240
    1U5      C2   20   6.884   9.184   7.130
    1U5      O2   21   6.919   9.257   7.221
    1U5     C3'   22   7.254   9.134   6.913
    1U5     H3'   23   7.258   9.027   6.934
    1U5     C2'   24   7.198   9.207   7.035
    1U5     H2'   25   7.205   9.124   7.105
    1U5     O2'   26   7.284   9.311   7.077
    1U5    HO2'   27   7.254   9.338   7.164
    1U5     O3'   28   7.395   9.118   6.922
    2U        P   29   7.462   8.979   6.968
    2U      OP1   30   7.605   8.987   6.929
    2U      OP2   31   7.380   8.864   6.921
    2U      O5'   32   7.446   8.986   7.127
    2U      C5'   33   7.528   9.070   7.204
    2U      H5'   34   7.537   9.170   7.161
    2U     H5''   35   7.626   9.024   7.211
    2U      C4'   36   7.468   9.081   7.343
    2U      H4'   37   7.517   9.158   7.402
    2U      O4'   38   7.332   9.127   7.329
    2U      C1'   39   7.250   9.067   7.429
    2U      H1'   40   7.196   9.144   7.484
    2U       N1   41   7.140   8.984   7.369
    2U       C6   42   7.143   8.950   7.235
    2U       H6   43   7.228   8.981   7.177
    2U       C5   44   7.048   8.877   7.176
    2U       H5   45   7.053   8.852   7.070
    2U       C4   46   6.938   8.829   7.254
    2U       O4   47   6.845   8.762   7.211
    2U       N3   48   6.940   8.866   7.388
    2U       H3   49   6.856   8.832   7.449
    2U       C2   50   7.036   8.942   7.451
    2U       O2   51   7.029   8.970   7.570
    2U      C3'   52   7.453   8.949   7.418
    2U      H3'   53   7.449   8.842   7.395
    2U      C2'   54   7.343   8.983   7.517
    2U      H2'   55   7.321   8.882   7.550
    2U      O2'   56   7.388   9.060   7.627
    2U     HO2'   57   7.318   9.059   7.692
    2U      O3'   58   7.573   8.907   7.482
    3C        P   59   7.605   8.752   7.506
    3C      OP1   60   7.748   8.746   7.546
    3C      OP2   61   7.562   8.671   7.389
    3C      O5'   62   7.512   8.713   7.631
    3C      C5'   63   7.530   8.776   7.758
    3C      H5'   64   7.536   8.884   7.743
    3C     H5''   65   7.623   8.741   7.803
    3C      C4'   66   7.414   8.745   7.852
    3C      H4'   67   7.428   8.800   7.945
    3C      O4'   68   7.288   8.796   7.798
    3C      C1'   69   7.183   8.707   7.829
    3C      H1'   70   7.101   8.765   7.871
    3C       N1   71   7.124   8.649   7.704
    3C       C6   72   7.193   8.651   7.586
    3C       H6   73   7.292   8.694   7.583
    3C       C5   74   7.141   8.600   7.474
    3C       H5   75   7.198   8.604   7.381
    3C       C4   76   7.010   8.543   7.482
    3C       N4   77   6.952   8.492   7.375
    3C      H41   78   6.860   8.453   7.385
    3C      H42   79   7.000   8.492   7.286
    3C       N3   80   6.941   8.541   7.596
    3C       C2   81   6.995   8.593   7.709
    3C       O2   82   6.933   8.593   7.816
    3C      C3'   83   7.386   8.597   7.873
    3C      H3'   84   7.406   8.501   7.825
    3C      C2'   85   7.241   8.601   7.921
    3C      H2'   86   7.221   8.494   7.913
    3C      O2'   87   7.229   8.642   8.055
    3C     HO2'   88   7.138   8.622   8.082
    3C      O3'   89   7.472   8.541   7.970
    4C        P   90   7.508   8.385   7.963
    4C      OP1   91   7.615   8.361   8.063
    4C      OP2   92   7.524   8.342   7.822
    4C      O5'   93   7.374   8.316   8.017
    4C      C5'   94   7.332   8.332   8.151
    4C      H5'   95   7.316   8.436   8.179
    4C     H5''   96   7.407   8.288   8.217
    4C      C4'   97   7.201   8.256   8.168
    4C      H4'   98   7.161   8.272   8.268
    4C      O4'   99   7.101   8.312   8.080
    4C      C1'  100   7.009   8.211   8.042
    4C      H1'  101   6.909   8.240   8.072
    4C       N1  102   7.000   8.201   7.894
    4C       C6  103   7.098   8.254   7.815
    4C       H6  104   7.184   8.303   7.859
    4C       C5  105   7.090   8.247   7.681
    4C       H5  106   7.168   8.292   7.621
    4C       C4  107   6.975   8.182   7.625
    4C       N4  108   6.961   8.173   7.492
    4C      H41  109   6.879   8.126   7.456
    4C      H42  110   7.032   8.212   7.431
    4C       N3  111   6.878   8.130   7.700
    4C       C2  112   6.889   8.138   7.835
    4C       O2  113   6.801   8.090   7.908
    4C      C3'  114   7.203   8.110   8.125
    4C      H3'  115   7.258   8.043   8.059
    4C      C2'  116   7.054   8.084   8.113
    4C      H2'  117   7.057   7.985   8.068
    4C      O2'  118   6.991   8.076   8.240
    4C     HO2'  119   6.902   8.043   8.226
    4C      O3'  120   7.263   8.030   8.224
    5C        P  121   7.333   7.891   8.187
    5C      OP1  122   7.398   7.843   8.312
    5C      OP2  123   7.411   7.910   8.062
    5C      O5'  124   7.212   7.792   8.152
    5C      C5'  125   7.134   7.736   8.259
    5C      H5'  126   7.105   7.809   8.335
    5C     H5''  127   7.198   7.660   8.304
    5C      C4'  128   7.010   7.670   8.203
    5C      H4'  129   6.934   7.654   8.280
    5C      O4'  130   6.948   7.761   8.109
    5C      C1'  131   6.879   7.689   8.009
    5C      H1'  132   6.773   7.712   8.014
    5C       N1  133   6.919   7.735   7.871
    5C       C6  134   7.027   7.815   7.850
    5C       H6  135   7.088   7.846   7.934
    5C       C5  136   7.061   7.856   7.727
    5C       H5  137   7.149   7.920   7.715
    5C       C4  138   6.980   7.814   7.618
    5C       N4  139   7.008   7.853   7.492
    5C      H41  140   6.948   7.820   7.418
    5C      H42  141   7.088   7.912   7.474
    5C       N3  142   6.873   7.735   7.636
    5C       C2  143   6.840   7.695   7.762
    5C       O2  144   6.743   7.621   7.784
    5C      C3'  145   7.035   7.550   8.114
    5C      H3'  146   7.116   7.519   8.047
    5C      C2'  147   6.902   7.542   8.041
    5C      H2'  148   6.923   7.462   7.969
    5C      O2'  149   6.797   7.501   8.127
    5C     HO2'  150   6.721   7.484   8.071
    5C      O3'  151   7.072   7.431   8.186
    6G        P  152   7.176   7.331   8.115
    6G      OP1  153   7.205   7.219   8.207
    6G      OP2  154   7.288   7.413   8.062
    6G      O5'  155   7.096   7.285   7.983
    6G      C5'  156   6.995   7.185   7.980
    6G      H5'  157   6.911   7.206   8.046
    6G     H5''  158   7.042   7.091   8.010
    6G      C4'  159   6.945   7.172   7.837
    6G      H4'  160   6.849   7.121   7.832
    6G      O4'  161   6.919   7.305   7.786
    6G      C1'  162   6.948   7.313   7.648
    6G      H1'  163   6.861   7.352   7.595
    6G       N9  164   7.050   7.415   7.628
    6G       C8  165   7.132   7.473   7.723
    6G       H8  166   7.126   7.444   7.826
    6G       N7  167   7.213   7.562   7.672
    6G       C5  168   7.183   7.561   7.537
    6G       C6  169   7.239   7.637   7.434
    6G       O6  170   7.330   7.721   7.447
    6G       N1  171   7.181   7.609   7.309
    6G       H1  172   7.214   7.658   7.228
    6G       C2  173   7.081   7.517   7.290
    6G       N2  174   7.035   7.500   7.165
    6G      H21  175   7.066   7.549   7.083
    6G      H22  176   6.961   7.433   7.153
    6G       N3  177   7.027   7.444   7.388
    6G       C4  178   7.083   7.472   7.508
    6G      C3'  179   7.047   7.120   7.738
    6G      H3'  180   7.155   7.106   7.733
    6G      C2'  181   6.997   7.176   7.605
    6G      H2'  182   7.087   7.157   7.547
    6G      O2'  183   6.890   7.102   7.551
    6G     HO2'  184   6.878   7.132   7.460
    6G      O3'  185   7.049   6.980   7.741
    7A        P  186   7.189   6.905   7.767
    7A      OP1  187   7.255   6.958   7.889
    7A      OP2  188   7.259   6.903   7.637
    7A      O5'  189   7.135   6.760   7.801
    7A      C5'  190   7.039   6.739   7.905
    7A      H5'  191   6.961   6.814   7.912
    7A     H5''  192   7.097   6.739   7.997
    7A      C4'  193   6.976   6.603   7.885
    7A      H4'  194   6.885   6.587   7.943
    7A      O4'  195   6.933   6.595   7.748
    7A      C1'  196   6.940   6.460   7.705
    7A      H1'  197   6.845   6.407   7.696
    7A       N9  198   6.993   6.455   7.570
    7A       C8  199   7.047   6.557   7.497
    7A       H8  200   7.061   6.653   7.544
    7A       N7  201   7.081   6.525   7.375
    7A       C5  202   7.047   6.391   7.366
    7A       C6  203   7.058   6.296   7.263
    7A       N6  204   7.108   6.325   7.142
    7A      H61  205   7.113   6.253   7.071
    7A      H62  206   7.142   6.418   7.121
    7A       N1  207   7.014   6.171   7.287
    7A       C2  208   6.963   6.141   7.406
    7A       H2  209   6.927   6.042   7.429
    7A       N3  210   6.948   6.222   7.511
    7A       C4  211   6.992   6.347   7.485
    7A      C3'  212   7.075   6.488   7.890
    7A      H3'  213   7.182   6.478   7.874
    7A      C2'  214   7.002   6.378   7.816
    7A      H2'  215   7.080   6.302   7.803
    7A      O2'  216   6.898   6.325   7.894
    7A     HO2'  217   6.863   6.249   7.848
    7A      O3'  218   7.105   6.455   8.024
    8A        P  219   7.260   6.443   8.063
    8A      OP1  220   7.262   6.437   8.212
    8A      OP2  221   7.341   6.545   7.991
    8A      O5'  222   7.298   6.299   8.000
    8A      C5'  223   7.226   6.178   8.034
    8A      H5'  224   7.120   6.202   8.042
    8A     H5''  225   7.262   6.143   8.131
    8A      C4'  226   7.245   6.068   7.930
    8A      H4'  227   7.191   5.979   7.964
    8A      O4'  228   7.183   6.102   7.803
    8A      C1'  229   7.260   6.053   7.695
    8A      H1'  230   7.201   5.994   7.625
    8A       N9  231   7.307   6.165   7.612
    8A       C8  232   7.341   6.291   7.653
    8A       H8  233   7.338   6.316   7.758
    8A       N7  234   7.380   6.371   7.555
    8A       C5  235   7.371   6.292   7.443
    8A       C6  236   7.398   6.317   7.307
    8A       N6  237   7.442   6.434   7.260
    8A      H61  238   7.460   6.446   7.161
    8A      H62  239   7.457   6.511   7.323
    8A       N1  240   7.380   6.215   7.220
    8A       C2  241   7.337   6.097   7.266
    8A       H2  242   7.321   6.014   7.199
    8A       N3  243   7.308   6.062   7.392
    8A       C4  244   7.327   6.165   7.476
    8A      C3'  245   7.389   6.040   7.891
    8A      H3'  246   7.485   6.091   7.895
    8A      C2'  247   7.373   5.970   7.756
    8A      H2'  248   7.477   5.978   7.725
    8A      O2'  249   7.337   5.834   7.768
    8A     HO2'  250   7.349   5.794   7.681
    8A      O3'  251   7.457   5.961   7.988
    9A        P  252   7.618   5.971   7.996
    9A      OP1  253   7.658   5.931   8.133
    9A      OP2  254   7.665   6.103   7.945
    9A      O5'  255   7.662   5.859   7.890
    9A      C5'  256   7.746   5.898   7.783
    9A      H5'  257   7.849   5.905   7.816
    9A     H5''  258   7.711   5.996   7.752
    9A      C4'  259   7.737   5.802   7.667
    9A      H4'  260   7.708   5.701   7.696
    9A      O4'  261   7.631   5.845   7.578
    9A      C1'  262   7.674   5.845   7.443
    9A      H1'  263   7.598   5.805   7.377
    9A       N9  264   7.688   5.982   7.399
    9A       C8  265   7.699   6.095   7.476
    9A       H8  266   7.702   6.088   7.583
    9A       N7  267   7.713   6.205   7.406
    9A       C5  268   7.711   6.162   7.274
    9A       C6  269   7.720   6.230   7.151
    9A       N6  270   7.735   6.361   7.143
    9A      H61  271   7.741   6.406   7.052
    9A      H62  272   7.740   6.417   7.227
    9A       N1  273   7.715   6.157   7.038
    9A       C2  274   7.700   6.024   7.047
    9A       H2  275   7.695   5.963   6.958
    9A       N3  276   7.690   5.949   7.157
    9A       C4  277   7.696   6.025   7.268
    9A      C3'  278   7.861   5.807   7.580
    9A      H3'  279   7.952   5.867   7.572
    9A      C2'  280   7.809   5.774   7.441
    9A      H2'  281   7.896   5.812   7.386
    9A      O2'  282   7.795   5.636   7.417
    9A     HO2'  283   7.783   5.625   7.322
    9A      O3'  284   7.958   5.716   7.629
   10G        P  285   8.108   5.766   7.649
   10G      OP1  286   8.177   5.652   7.714
   10G      OP2  287   8.110   5.897   7.719
   10G      O5'  288   8.158   5.784   7.497
   10G      C5'  289   8.177   5.665   7.420
   10G      H5'  290   8.092   5.601   7.443
   10G     H5''  291   8.268   5.616   7.454
   10G      C4'  292   8.185   5.687   7.270
   10G      H4'  293   8.192   5.587   7.225
   10G      O4'  294   8.061   5.742   7.217
   10G      C1'  295   8.091   5.826   7.107
   10G      H1'  296   8.012   5.806   7.034
   10G       N9  297   8.072   5.967   7.140
   10G       C8  298   8.055   6.025   7.264
   10G       H8  299   8.050   5.964   7.353
   10G       N7  300   8.045   6.155   7.261
   10G       C5  301   8.059   6.185   7.126
   10G       C6  302   8.057   6.310   7.060
   10G       O6  303   8.043   6.422   7.111
   10G       N1  304   8.075   6.297   6.922
   10G       H1  305   8.075   6.380   6.866
   10G       C2  306   8.092   6.177   6.856
   10G       N2  307   8.107   6.181   6.723
   10G      H21  308   8.107   6.263   6.664
   10G      H22  309   8.119   6.092   6.676
   10G       N3  310   8.093   6.059   6.917
   10G       C4  311   8.076   6.071   7.051
   10G      C3'  312   8.291   5.783   7.220
   10G      H3'  313   8.350   5.870   7.250
   10G      C2'  314   8.240   5.804   7.078
   10G      H2'  315   8.308   5.885   7.051
   10G      O2'  316   8.260   5.695   6.991
   10G     HO2'  317   8.243   5.726   6.902
   10G      O3'  318   8.421   5.727   7.225
   11G        P  319   8.547   5.811   7.277
   11G      OP1  320   8.652   5.712   7.309
   11G      OP2  321   8.505   5.907   7.382
   11G      O5'  322   8.590   5.895   7.147
   11G      C5'  323   8.608   5.828   7.022
   11G      H5'  324   8.535   5.747   7.013
   11G     H5''  325   8.709   5.787   7.020
   11G      C4'  326   8.591   5.924   6.906
   11G      H4'  327   8.592   5.866   6.814
   11G      O4'  328   8.459   5.986   6.909
   11G      C1'  329   8.468   6.115   6.849
   11G      H1'  330   8.389   6.122   6.774
   11G       N9  331   8.432   6.219   6.946
   11G       C8  332   8.411   6.203   7.081
   11G       H8  333   8.419   6.106   7.127
   11G       N7  334   8.382   6.314   7.143
   11G       C5  335   8.384   6.410   7.043
   11G       C6  336   8.359   6.549   7.050
   11G       O6  337   8.329   6.616   7.150
   11G       N1  338   8.372   6.611   6.925
   11G       H1  339   8.356   6.710   6.920
   11G       C2  340   8.403   6.546   6.808
   11G       N2  341   8.411   6.621   6.697
   11G      H21  342   8.394   6.720   6.689
   11G      H22  343   8.433   6.572   6.611
   11G       N3  344   8.426   6.415   6.800
   11G       C4  345   8.415   6.354   6.921
   11G      C3'  346   8.683   6.045   6.905
   11G      H3'  347   8.739   6.109   6.973
   11G      C2'  348   8.612   6.131   6.801
   11G      H2'  349   8.671   6.221   6.814
   11G      O2'  350   8.625   6.084   6.668
   11G     HO2'  351   8.594   6.154   6.610
   11G      O3'  352   8.816   6.012   6.866
   12A        P  353   8.939   6.099   6.921
   12A      OP1  354   9.062   6.038   6.865
   12A      OP2  355   8.924   6.115   7.068
   12A      O5'  356   8.916   6.242   6.854
   12A      C5'  357   8.955   6.268   6.719
   12A      H5'  358   8.895   6.207   6.652
   12A     H5''  359   9.060   6.241   6.708
   12A      C4'  360   8.937   6.415   6.684
   12A      H4'  361   8.955   6.427   6.577
   12A      O4'  362   8.798   6.454   6.702
   12A      C1'  363   8.793   6.588   6.748
   12A      H1'  364   8.719   6.646   6.693
   12A       N9  365   8.742   6.595   6.886
   12A       C8  366   8.734   6.493   6.978
   12A       H8  367   8.770   6.395   6.952
   12A       N7  368   8.686   6.529   7.094
   12A       C5  369   8.661   6.665   7.079
   12A       C6  370   8.608   6.763   7.166
   12A       N6  371   8.571   6.737   7.291
   12A      H61  372   8.534   6.811   7.349
   12A      H62  373   8.579   6.643   7.328
   12A       N1  374   8.596   6.890   7.119
   12A       C2  375   8.633   6.916   6.993
   12A       H2  376   8.625   7.016   6.953
   12A       N3  377   8.684   6.833   6.902
   12A       C4  378   8.695   6.707   6.951
   12A      C3'  379   9.013   6.515   6.771
   12A      H3'  380   9.053   6.522   6.871
   12A      C2'  381   8.935   6.642   6.738
   12A      H2'  382   8.981   6.708   6.812
   12A      O2'  383   8.960   6.692   6.608
   12A     HO2'  384   8.922   6.780   6.604
   12A      O3'  385   9.152   6.522   6.739
   13U        P  386   9.261   6.519   6.858
   13U      OP1  387   9.394   6.497   6.797
   13U      OP2  388   9.214   6.425   6.962
   13U      O5'  389   9.254   6.667   6.918
   13U      C5'  390   9.276   6.780   6.835
   13U      H5'  391   9.234   6.761   6.736
   13U     H5''  392   9.384   6.795   6.825
   13U      C4'  393   9.213   6.905   6.893
   13U      H4'  394   9.213   6.984   6.818
   13U      O4'  395   9.072   6.882   6.921
   13U      C1'  396   9.035   6.954   7.038
   13U      H1'  397   8.947   7.016   7.020
   13U       N1  398   8.988   6.859   7.146
   13U       C6  399   9.019   6.724   7.137
   13U       H6  400   9.081   6.692   7.054
   13U       C5  401   8.982   6.633   7.228
   13U       H5  402   9.009   6.528   7.218
   13U       C4  403   8.905   6.676   7.342
   13U       O4  404   8.866   6.602   7.432
   13U       N3  405   8.877   6.812   7.346
   13U       H3  406   8.819   6.846   7.432
   13U       C2  407   8.913   6.907   7.253
   13U       O2  408   8.882   7.024   7.267
   13U      C3'  409   9.270   6.950   7.027
   13U      H3'  410   9.327   6.910   7.111
   13U      C2'  411   9.157   7.038   7.079
   13U      H2'  412   9.193   7.046   7.182
   13U      O2'  413   9.153   7.166   7.020
   13U     HO2'  414   9.093   7.220   7.072
   13U      O3'  415   9.394   7.019   7.009
   14G        P  416   9.507   7.014   7.123
   14G      OP1  417   9.638   7.037   7.056
   14G      OP2  418   9.489   6.891   7.205
   14G      O5'  419   9.471   7.141   7.212
   14G      C5'  420   9.465   7.130   7.353
   14G      H5'  421   9.566   7.123   7.393
   14G     H5''  422   9.411   7.038   7.378
   14G      C4'  423   9.394   7.248   7.416
   14G      H4'  424   9.426   7.342   7.373
   14G      O4'  425   9.251   7.243   7.389
   14G      C1'  426   9.177   7.244   7.510
   14G      H1'  427   9.086   7.301   7.495
   14G       N9  428   9.129   7.109   7.542
   14G       C8  429   9.153   6.994   7.470
   14G       H8  430   9.213   6.998   7.380
   14G       N7  431   9.098   6.887   7.520
   14G       C5  432   9.033   6.932   7.633
   14G       C6  433   8.956   6.861   7.728
   14G       O6  434   8.930   6.739   7.729
   14G       N1  435   8.906   6.944   7.828
   14G       H1  436   8.850   6.903   7.900
   14G       C2  437   8.929   7.080   7.836
   14G       N2  438   8.874   7.144   7.939
   14G      H21  439   8.817   7.104   8.012
   14G      H22  440   8.891   7.244   7.944
   14G       N3  441   9.002   7.148   7.747
   14G       C4  442   9.051   7.068   7.648
   14G      C3'  443   9.405   7.246   7.568
   14G      H3'  444   9.447   7.182   7.645
   14G      C2'  445   9.271   7.303   7.616
   14G      H2'  446   9.277   7.265   7.718
   14G      O2'  447   9.266   7.444   7.619
   14G     HO2'  448   9.188   7.468   7.669
   14G      O3'  449   9.516   7.323   7.608
   15G        P  450   9.633   7.250   7.690
   15G      OP1  451   9.755   7.334   7.675
   15G      OP2  452   9.636   7.107   7.652
   15G      O5'  453   9.583   7.259   7.841
   15G      C5'  454   9.530   7.381   7.894
   15G      H5'  455   9.473   7.435   7.818
   15G     H5''  456   9.614   7.442   7.927
   15G      C4'  457   9.439   7.352   8.012
   15G      H4'  458   9.412   7.446   8.060
   15G      O4'  459   9.313   7.296   7.968
   15G      C1'  460   9.258   7.220   8.076
   15G      H1'  461   9.161   7.263   8.101
   15G       N9  462   9.226   7.083   8.033
   15G       C8  463   9.263   7.021   7.916
   15G       H8  464   9.322   7.073   7.843
   15G       N7  465   9.221   6.898   7.906
   15G       C5  466   9.151   6.877   8.024
   15G       C6  467   9.082   6.762   8.070
   15G       O6  468   9.069   6.652   8.013
   15G       N1  469   9.024   6.782   8.196
   15G       H1  470   8.973   6.706   8.237
   15G       C2  471   9.032   6.899   8.268
   15G       N2  472   8.970   6.901   8.387
   15G      H21  473   8.917   6.825   8.429
   15G      H22  474   8.975   6.987   8.439
   15G       N3  475   9.096   7.008   8.226
   15G       C4  476   9.153   6.990   8.104
   15G      C3'  477   9.489   7.245   8.108
   15G      H3'  478   9.550   7.155   8.110
   15G      C2'  479   9.361   7.222   8.188
   15G      H2'  480   9.395   7.132   8.241
   15G      O2'  481   9.333   7.324   8.282
   15G     HO2'  482   9.264   7.290   8.340
   15G      O3'  483   9.598   7.290   8.187
   16C        P  484   9.706   7.185   8.242
   16C      OP1  485   9.824   7.262   8.288
   16C      OP2  486   9.725   7.079   8.140
   16C      O5'  487   9.633   7.120   8.369
   16C      C5'  488   9.591   7.202   8.478
   16C      H5'  489   9.549   7.295   8.441
   16C     H5''  490   9.679   7.223   8.538
   16C      C4'  491   9.487   7.133   8.565
   16C      H4'  492   9.449   7.205   8.638
   16C      O4'  493   9.370   7.094   8.488
   16C      C1'  494   9.315   6.973   8.541
   16C      H1'  495   9.208   6.987   8.555
   16C       N1  496   9.324   6.861   8.439
   16C       C6  497   9.394   6.881   8.322
   16C       H6  498   9.441   6.977   8.306
   16C       C5  499   9.405   6.787   8.228
   16C       H5  500   9.462   6.807   8.138
   16C       C4  501   9.341   6.662   8.254
   16C       N4  502   9.349   6.563   8.164
   16C      H41  503   9.302   6.476   8.185
   16C      H42  504   9.400   6.577   8.078
   16C       N3  505   9.272   6.639   8.366
   16C       C2  506   9.261   6.736   8.461
   16C       O2  507   9.197   6.715   8.565
   16C      C3'  508   9.529   7.000   8.625
   16C      H3'  509   9.594   6.916   8.599
   16C      C2'  510   9.393   6.946   8.670
   16C      H2'  511   9.423   6.847   8.704
   16C      O2'  512   9.335   7.017   8.778
   16C     HO2'  513   9.259   6.966   8.808
   16C      O3'  514   9.626   7.012   8.728
   17G        P  515   9.759   6.923   8.715
   17G      OP1  516   9.865   6.987   8.797
   17G      OP2  517   9.784   6.895   8.572
   17G      O5'  518   9.717   6.784   8.784
   17G      C5'  519   9.644   6.779   8.907
   17G      H5'  520   9.580   6.867   8.919
   17G     H5''  521   9.718   6.776   8.987
   17G      C4'  522   9.558   6.654   8.913
   17G      H4'  523   9.495   6.657   9.002
   17G      O4'  524   9.465   6.648   8.802
   17G      C1'  525   9.435   6.511   8.776
   17G      H1'  526   9.327   6.497   8.784
   17G       N9  527   9.464   6.475   8.636
   17G       C8  528   9.533   6.549   8.542
   17G       H8  529   9.573   6.646   8.568
   17G       N7  530   9.542   6.490   8.426
   17G       C5  531   9.476   6.369   8.443
   17G       C6  532   9.453   6.262   8.352
   17G       O6  533   9.488   6.253   8.233
   17G       N1  534   9.381   6.157   8.409
   17G       H1  535   9.360   6.078   8.353
   17G       C2  536   9.337   6.155   8.540
   17G       N2  537   9.270   6.046   8.578
   17G      H21  538   9.247   5.966   8.521
   17G      H22  539   9.237   6.045   8.673
   17G       N3  540   9.358   6.254   8.626
   17G       C4  541   9.427   6.358   8.572
   17G      C3'  542   9.633   6.523   8.893
   17G      H3'  543   9.718   6.485   8.837
   17G      C2'  544   9.515   6.428   8.876
   17G      H2'  545   9.569   6.336   8.852
   17G      O2'  546   9.438   6.408   8.993
   17G     HO2'  547   9.377   6.336   8.975
   17G      O3'  548   9.716   6.491   9.003
   18G        P  549   9.868   6.455   8.972
   18G      OP1  550   9.942   6.462   9.101
   18G      OP2  551   9.913   6.535   8.856
   18G      O5'  552   9.862   6.303   8.924
   18G      C5'  553   9.803   6.202   9.008
   18G      H5'  554   9.715   6.241   9.059
   18G     H5''  555   9.877   6.173   9.081
   18G      C4'  556   9.763   6.082   8.925
   18G      H4'  557   9.706   6.012   8.987
   18G      O4'  558   9.671   6.121   8.820
   18G      C1'  559   9.684   6.030   8.711
   18G      H1'  560   9.585   5.990   8.690
   18G       N9  561   9.720   6.101   8.588
   18G       C8  562   9.762   6.231   8.575
   18G       H8  563   9.770   6.295   8.662
   18G       N7  564   9.789   6.265   8.452
   18G       C5  565   9.764   6.151   8.379
   18G       C6  566   9.776   6.127   8.239
   18G       O6  567   9.812   6.207   8.151
   18G       N1  568   9.741   5.996   8.205
   18G       H1  569   9.745   5.970   8.108
   18G       C2  570   9.699   5.900   8.294
   18G       N2  571   9.670   5.780   8.243
   18G      H21  572   9.673   5.753   8.146
   18G      H22  573   9.639   5.709   8.308
   18G       N3  574   9.688   5.921   8.425
   18G       C4  575   9.722   6.048   8.460
   18G      C3'  576   9.875   6.016   8.845
   18G      H3'  577   9.971   6.041   8.799
   18G      C2'  578   9.793   5.930   8.750
   18G      H2'  579   9.875   5.901   8.684
   18G      O2'  580   9.740   5.814   8.812
   18G     HO2'  581   9.707   5.757   8.742
   18G      O3'  582   9.966   5.941   8.926
   19A        P  583  10.124   5.969   8.914
   19A      OP1  584  10.189   5.901   9.029
   19A      OP2  585  10.142   6.115   8.895
   19A      O5'  586  10.166   5.894   8.779
   19A      C5'  587  10.262   5.953   8.690
   19A      H5'  588  10.341   5.998   8.750
   19A     H5''  589  10.212   6.030   8.631
   19A      C4'  590  10.323   5.850   8.596
   19A      H4'  591  10.415   5.891   8.553
   19A      O4'  592  10.367   5.736   8.673
   19A      C1'  593  10.329   5.615   8.609
   19A      H1'  594  10.408   5.541   8.605
   19A       N9  595  10.225   5.548   8.689
   19A       C8  596  10.158   5.599   8.798
   19A       H8  597  10.177   5.701   8.829
   19A       N7  598  10.071   5.517   8.851
   19A       C5  599  10.081   5.403   8.772
   19A       C6  600  10.015   5.278   8.776
   19A       N6  601   9.921   5.248   8.867
   19A      H61  602   9.877   5.157   8.866
   19A      H62  603   9.895   5.316   8.937
   19A       N1  604  10.048   5.186   8.682
   19A       C2  605  10.141   5.216   8.591
   19A       H2  606  10.169   5.145   8.515
   19A       N3  607  10.210   5.330   8.577
   19A       C4  608  10.175   5.420   8.672
   19A      C3'  609  10.229   5.792   8.491
   19A      H3'  610  10.122   5.791   8.469
   19A      C2'  611  10.287   5.653   8.467
   19A      H2'  612  10.202   5.610   8.415
   19A      O2'  613  10.400   5.656   8.381
   19A     HO2'  614  10.418   5.565   8.356
   19A      O3'  615  10.230   5.868   8.371
   20A        P  616  10.090   5.908   8.304
   20A      OP1  617  10.119   5.977   8.176
   20A      OP2  618  10.012   5.975   8.411
   20A      O5'  619  10.020   5.767   8.275
   20A      C5'  620  10.051   5.695   8.156
   20A      H5'  621  10.158   5.702   8.140
   20A     H5''  622   9.999   5.740   8.072
   20A      C4'  623  10.011   5.549   8.167
   20A      H4'  624  10.079   5.489   8.108
   20A      O4'  625  10.032   5.504   8.303
   20A      C1'  626   9.930   5.414   8.342
   20A      H1'  627   9.967   5.316   8.373
   20A       N9  628   9.867   5.465   8.464
   20A       C8  629   9.881   5.590   8.517
   20A       H8  630   9.939   5.665   8.465
   20A       N7  631   9.814   5.608   8.628
   20A       C5  632   9.752   5.486   8.649
   20A       C6  633   9.667   5.440   8.751
   20A       N6  634   9.629   5.517   8.854
   20A      H61  635   9.567   5.480   8.925
   20A      H62  636   9.661   5.612   8.860
   20A       N1  637   9.622   5.312   8.743
   20A       C2  638   9.661   5.236   8.640
   20A       H2  639   9.627   5.133   8.631
   20A       N3  640   9.741   5.269   8.538
   20A       C4  641   9.784   5.396   8.549
   20A      C3'  642   9.865   5.519   8.137
   20A      H3'  643   9.773   5.574   8.117
   20A      C2'  644   9.834   5.398   8.225
   20A      H2'  645   9.727   5.415   8.228
   20A      O2'  646   9.861   5.274   8.162
   20A     HO2'  647   9.817   5.206   8.215
   20A      O3'  648   9.850   5.489   7.998
   21A        P  649   9.717   5.531   7.919
   21A      OP1  650   9.736   5.497   7.776
   21A      OP2  651   9.684   5.670   7.960
   21A      O5'  652   9.606   5.432   7.982
   21A      C5'  653   9.594   5.295   7.942
   21A      H5'  654   9.693   5.249   7.946
   21A     H5''  655   9.557   5.291   7.839
   21A      C4'  656   9.499   5.218   8.032
   21A      H4'  657   9.504   5.112   8.007
   21A      O4'  658   9.546   5.224   8.169
   21A      C1'  659   9.438   5.244   8.259
   21A      H1'  660   9.436   5.176   8.344
   21A       N9  661   9.455   5.375   8.323
   21A       C8  662   9.525   5.483   8.275
   21A       H8  663   9.567   5.477   8.176
   21A       N7  664   9.527   5.587   8.354
   21A       C5  665   9.454   5.545   8.464
   21A       C6  666   9.418   5.610   8.585
   21A       N6  667   9.453   5.736   8.615
   21A      H61  668   9.424   5.777   8.703
   21A      H62  669   9.508   5.790   8.550
   21A       N1  670   9.344   5.541   8.674
   21A       C2  671   9.308   5.415   8.644
   21A       H2  672   9.249   5.357   8.713
   21A       N3  673   9.335   5.344   8.534
   21A       C4  674   9.409   5.415   8.447
   21A      C3'  675   9.357   5.271   8.039
   21A      H3'  676   9.302   5.361   8.012
   21A      C2'  677   9.311   5.224   8.178
   21A      H2'  678   9.223   5.288   8.185
   21A      O2'  679   9.271   5.088   8.180
   21A     HO2'  680   9.225   5.074   8.264
   21A      O3'  681   9.274   5.219   7.934
   22C        P  682   9.198   5.317   7.833
   22C      OP1  683   9.095   5.238   7.763
   22C      OP2  684   9.302   5.388   7.754
   22C      O5'  685   9.126   5.424   7.929
   22C      C5'  686   9.013   5.388   8.006
   22C      H5'  687   9.005   5.279   8.015
   22C     H5''  688   8.925   5.427   7.955
   22C      C4'  689   9.021   5.448   8.144
   22C      H4'  690   9.003   5.371   8.219
   22C      O4'  691   9.155   5.496   8.172
   22C      C1'  692   9.149   5.604   8.264
   22C      H1'  693   9.207   5.577   8.353
   22C       N1  694   9.222   5.723   8.209
   22C       C6  695   9.266   5.721   8.079
   22C       H6  696   9.248   5.634   8.018
   22C       C5  697   9.331   5.825   8.026
   22C       H5  698   9.365   5.821   7.922
   22C       C4  699   9.353   5.939   8.110
   22C       N4  700   9.417   6.046   8.063
   22C      H41  701   9.430   6.124   8.126
   22C      H42  702   9.451   6.048   7.968
   22C       N3  703   9.310   5.942   8.237
   22C       C2  704   9.245   5.836   8.290
   22C       O2  705   9.205   5.839   8.407
   22C      C3'  706   8.938   5.574   8.165
   22C      H3'  707   8.894   5.655   8.107
   22C      C2'  708   9.002   5.630   8.292
   22C      H2'  709   8.955   5.729   8.286
   22C      O2'  710   8.962   5.566   8.412
   22C     HO2'  711   8.990   5.622   8.484
   22C      O3'  712   8.801   5.543   8.181
   23G        P  713   8.689   5.649   8.136
   23G      OP1  714   8.561   5.575   8.137
   23G      OP2  715   8.736   5.717   8.013
   23G      O5'  716   8.689   5.758   8.255
   23G      C5'  717   8.638   5.724   8.384
   23G      H5'  718   8.675   5.624   8.410
   23G     H5''  719   8.529   5.722   8.378
   23G      C4'  720   8.681   5.822   8.491
   23G      H4'  721   8.660   5.778   8.588
   23G      O4'  722   8.825   5.841   8.489
   23G      C1'  723   8.856   5.972   8.534
   23G      H1'  724   8.929   5.964   8.615
   23G       N9  725   8.927   6.044   8.430
   23G       C8  726   8.946   6.005   8.299
   23G       H8  727   8.906   5.911   8.264
   23G       N7  728   9.014   6.091   8.228
   23G       C5  729   9.042   6.193   8.317
   23G       C6  730   9.113   6.314   8.297
   23G       O6  731   9.166   6.354   8.193
   23G       N1  732   9.120   6.392   8.413
   23G       H1  733   9.169   6.479   8.409
   23G       C2  734   9.064   6.357   8.534
   23G       N2  735   9.080   6.444   8.635
   23G      H21  736   9.130   6.532   8.632
   23G      H22  737   9.040   6.418   8.724
   23G       N3  738   8.997   6.244   8.554
   23G       C4  739   8.989   6.167   8.442
   23G      C3'  740   8.628   5.965   8.476
   23G      H3'  741   8.592   6.034   8.400
   23G      C2'  742   8.723   6.038   8.571
   23G      H2'  743   8.695   6.139   8.541
   23G      O2'  744   8.693   6.020   8.708
   23G     HO2'  745   8.744   6.084   8.757
   23G      O3'  746   8.492   5.976   8.517
   24C        P  747   8.389   6.069   8.436
   24C      OP1  748   8.255   6.044   8.496
   24C      OP2  749   8.410   6.049   8.291
   24C      O5'  750   8.434   6.218   8.473
   24C      C5'  751   8.411   6.273   8.603
   24C      H5'  752   8.430   6.198   8.680
   24C     H5''  753   8.306   6.302   8.607
   24C      C4'  754   8.497   6.395   8.629
   24C      H4'  755   8.500   6.417   8.736
   24C      O4'  756   8.636   6.367   8.595
   24C      C1'  757   8.698   6.484   8.543
   24C      H1'  758   8.791   6.501   8.598
   24C       N1  759   8.744   6.460   8.400
   24C       C6  760   8.704   6.347   8.334
   24C       H6  761   8.640   6.276   8.386
   24C       C5  762   8.741   6.322   8.208
   24C       H5  763   8.706   6.231   8.159
   24C       C4  764   8.825   6.417   8.144
   24C       N4  765   8.865   6.397   8.018
   24C      H41  766   8.925   6.467   7.976
   24C      H42  767   8.836   6.314   7.968
   24C       N3  768   8.866   6.528   8.206
   24C       C2  769   8.828   6.553   8.335
   24C       O2  770   8.866   6.656   8.392
   24C      C3'  771   8.467   6.516   8.542
   24C      H3'  772   8.422   6.538   8.445
   24C      C2'  773   8.596   6.596   8.558
   24C      H2'  774   8.576   6.671   8.482
   24C      O2'  775   8.609   6.659   8.685
   24C     HO2'  776   8.683   6.721   8.678
   24C      O3'  777   8.350   6.584   8.584
   25C        P  778   8.235   6.617   8.476
   25C      OP1  779   8.106   6.625   8.550
   25C      OP2  780   8.247   6.521   8.363
   25C      O5'  781   8.273   6.763   8.421
   25C      C5'  782   8.322   6.865   8.511
   25C      H5'  783   8.366   6.818   8.599
   25C     H5''  784   8.237   6.926   8.541
   25C      C4'  785   8.426   6.953   8.444
   25C      H4'  786   8.465   7.024   8.517
   25C      O4'  787   8.541   6.875   8.403
   25C      C1'  788   8.600   6.933   8.288
   25C      H1'  789   8.704   6.956   8.310
   25C       N1  790   8.610   6.833   8.176
   25C       C6  791   8.546   6.712   8.185
   25C       H6  792   8.488   6.689   8.274
   25C       C5  793   8.553   6.621   8.086
   25C       H5  794   8.500   6.526   8.098
   25C       C4  795   8.629   6.655   7.970
   25C       N4  796   8.640   6.569   7.869
   25C      H41  797   8.696   6.597   7.789
   25C      H42  798   8.594   6.479   7.873
   25C       N3  799   8.692   6.772   7.960
   25C       C2  800   8.685   6.863   8.060
   25C       O2  801   8.742   6.972   8.052
   25C      C3'  802   8.382   7.019   8.314
   25C      H3'  803   8.307   7.007   8.236
   25C      C2'  804   8.516   7.055   8.251
   25C      H2'  805   8.477   7.075   8.151
   25C      O2'  806   8.573   7.173   8.304
   25C     HO2'  807   8.644   7.199   8.245
   25C      O3'  808   8.303   7.133   8.340
   26A        P  809   8.178   7.167   8.246
   26A      OP1  810   8.091   7.257   8.326
   26A      OP2  811   8.123   7.041   8.191
   26A      O5'  812   8.241   7.250   8.124
   26A      C5'  813   8.290   7.383   8.145
   26A      H5'  814   8.356   7.384   8.231
   26A     H5''  815   8.204   7.448   8.163
   26A      C4'  816   8.366   7.433   8.023
   26A      H4'  817   8.405   7.532   8.044
   26A      O4'  818   8.483   7.351   8.001
   26A      C1'  819   8.514   7.350   7.862
   26A      H1'  820   8.611   7.395   7.841
   26A       N9  821   8.531   7.212   7.818
   26A       C8  822   8.499   7.099   7.888
   26A       H8  823   8.450   7.106   7.984
   26A       N7  824   8.526   6.988   7.823
   26A       C5  825   8.580   7.031   7.703
   26A       C6  826   8.629   6.962   7.590
   26A       N6  827   8.632   6.829   7.580
   26A      H61  828   8.668   6.785   7.497
   26A      H62  829   8.597   6.772   7.656
   26A       N1  830   8.676   7.036   7.487
   26A       C2  831   8.674   7.170   7.496
   26A       H2  832   8.710   7.231   7.415
   26A       N3  833   8.630   7.245   7.597
   26A       C4  834   8.584   7.169   7.699
   26A      C3'  835   8.290   7.425   7.891
   26A      H3'  836   8.200   7.378   7.850
   26A      C2'  837   8.402   7.422   7.787
   26A      H2'  838   8.341   7.375   7.709
   26A      O2'  839   8.443   7.550   7.745
   26A     HO2'  840   8.495   7.538   7.665
   26A      O3'  841   8.206   7.537   7.877
   27G        P  842   8.048   7.520   7.898
   27G      OP1  843   8.003   7.635   7.980
   27G      OP2  844   8.020   7.381   7.942
   27G      O5'  845   7.993   7.534   7.748
   27G      C5'  846   7.989   7.661   7.684
   27G      H5'  847   8.037   7.736   7.747
   27G     H5''  848   7.885   7.688   7.669
   27G      C4'  849   8.060   7.656   7.550
   27G      H4'  850   8.088   7.757   7.522
   27G      O4'  851   8.186   7.586   7.564
   27G      C1'  852   8.218   7.524   7.440
   27G      H1'  853   8.317   7.559   7.410
   27G       N9  854   8.236   7.379   7.457
   27G       C8  855   8.178   7.297   7.550
   27G       H8  856   8.110   7.337   7.624
   27G       N7  857   8.214   7.172   7.539
   27G       C5  858   8.300   7.171   7.430
   27G       C6  859   8.370   7.064   7.369
   27G       O6  860   8.370   6.944   7.401
   27G       N1  861   8.447   7.106   7.261
   27G       H1  862   8.500   7.037   7.212
   27G       C2  863   8.455   7.236   7.216
   27G       N2  864   8.534   7.259   7.110
   27G      H21  865   8.590   7.192   7.060
   27G      H22  866   8.541   7.355   7.079
   27G       N3  867   8.390   7.338   7.272
   27G       C4  868   8.315   7.298   7.378
   27G      C3'  869   7.990   7.578   7.439
   27G      H3'  870   7.923   7.493   7.434
   27G      C2'  871   8.106   7.558   7.342
   27G      H2'  872   8.057   7.486   7.277
   27G      O2'  873   8.142   7.673   7.267
   27G     HO2'  874   8.201   7.644   7.197
   27G      O3'  875   7.874   7.642   7.380
   28A        P  876   7.857   7.799   7.347
   28A      OP1  877   7.989   7.864   7.330
   28A      OP2  878   7.759   7.853   7.444
   28A      O5'  879   7.785   7.796   7.204
   28A      C5'  880   7.824   7.702   7.105
   28A      H5'  881   7.853   7.613   7.160
   28A     H5''  882   7.909   7.738   7.047
   28A      C4'  883   7.710   7.668   7.010
   28A      H4'  884   7.756   7.649   6.913
   28A      O4'  885   7.647   7.542   7.046
   28A      C1'  886   7.511   7.559   7.080
   28A      H1'  887   7.441   7.512   7.010
   28A       N9  888   7.488   7.486   7.204
   28A       C8  889   7.546   7.512   7.326
   28A       H8  890   7.613   7.597   7.337
   28A       N7  891   7.508   7.431   7.422
   28A       C5  892   7.419   7.346   7.358
   28A       C6  893   7.344   7.237   7.406
   28A       N6  894   7.350   7.197   7.533
   28A      H61  895   7.294   7.118   7.564
   28A      H62  896   7.409   7.246   7.599
   28A       N1  897   7.264   7.171   7.318
   28A       C2  898   7.260   7.214   7.191
   28A       H2  899   7.198   7.164   7.118
   28A       N3  900   7.327   7.315   7.135
   28A       C4  901   7.405   7.378   7.225
   28A      C3'  902   7.596   7.769   7.001
   28A      H3'  903   7.580   7.877   6.990
   28A      C2'  904   7.486   7.710   7.090
   28A      H2'  905   7.512   7.770   7.177
   28A      O2'  906   7.354   7.743   7.048
   28A     HO2'  907   7.295   7.723   7.122
   28A      O3'  908   7.558   7.779   6.866
   29U        P  909   7.493   7.912   6.805
   29U      OP1  910   7.573   7.950   6.687
   29U      OP2  911   7.471   8.009   6.916
   29U      O5'  912   7.350   7.861   6.754
   29U      C5'  913   7.335   7.725   6.713
   29U      H5'  914   7.259   7.677   6.774
   29U     H5''  915   7.431   7.676   6.729
   29U      C4'  916   7.296   7.715   6.567
   29U      H4'  917   7.187   7.718   6.561
   29U      O4'  918   7.339   7.832   6.491
   29U      C1'  919   7.356   7.792   6.355
   29U      H1'  920   7.301   7.859   6.290
   29U       N1  921   7.499   7.809   6.309
   29U       C6  922   7.602   7.817   6.403
   29U       H6  923   7.576   7.808   6.508
   29U       C5  924   7.732   7.831   6.371
   29U       H5  925   7.810   7.838   6.446
   29U       C4  926   7.768   7.838   6.231
   29U       O4  927   7.882   7.850   6.188
   29U       N3  928   7.661   7.828   6.142
   29U       H3  929   7.687   7.833   6.036
   29U       C2  930   7.527   7.813   6.173
   29U       O2  931   7.442   7.806   6.085
   29U      C3'  932   7.360   7.602   6.487
   29U      H3'  933   7.455   7.549   6.477
   29U      C2'  934   7.312   7.646   6.348
   29U      H2'  935   7.364   7.570   6.289
   29U      O2'  936   7.172   7.632   6.328
   29U     HO2'  937   7.156   7.646   6.234
   29U      O3'  938   7.320   7.470   6.523
   30G        P  939   7.403   7.344   6.468
   30G      OP1  940   7.486   7.386   6.353
   30G      OP2  941   7.310   7.230   6.452
   30G      O5'  942   7.498   7.310   6.593
   30G      C5'  943   7.623   7.375   6.606
   30G      H5'  944   7.611   7.478   6.575
   30G     H5''  945   7.699   7.327   6.544
   30G      C4'  946   7.667   7.371   6.751
   30G      H4'  947   7.653   7.470   6.794
   30G      O4'  948   7.580   7.285   6.828
   30G      C1'  949   7.660   7.230   6.929
   30G      H1'  950   7.670   7.304   7.009
   30G       N9  951   7.591   7.119   6.994
   30G       C8  952   7.508   7.025   6.936
   30G       H8  953   7.485   7.028   6.831
   30G       N7  954   7.462   6.938   7.022
   30G       C5  955   7.519   6.976   7.143
   30G       C6  956   7.505   6.920   7.272
   30G       O6  957   7.439   6.821   7.302
   30G       N1  958   7.577   6.989   7.369
   30G       H1  959   7.573   6.957   7.464
   30G       C2  960   7.655   7.099   7.343
   30G       N2  961   7.719   7.151   7.447
   30G      H21  962   7.715   7.119   7.543
   30G      H22  963   7.775   7.233   7.429
   30G       N3  964   7.669   7.153   7.222
   30G       C4  965   7.598   7.087   7.128
   30G      C3'  966   7.809   7.318   6.773
   30G      H3'  967   7.902   7.310   6.718
   30G      C2'  968   7.786   7.191   6.854
   30G      H2'  969   7.790   7.119   6.772
   30G      O2'  970   7.889   7.163   6.946
   30G     HO2'  971   7.875   7.074   6.978
   30G      O3'  972   7.885   7.415   6.846
   31C        P  973   7.983   7.518   6.772
   31C      OP1  974   8.052   7.595   6.879
   31C      OP2  975   7.905   7.590   6.669
   31C      O5'  976   8.092   7.422   6.702
   31C      C5'  977   8.139   7.447   6.569
   31C      H5'  978   8.204   7.534   6.572
   31C     H5''  979   8.053   7.467   6.505
   31C      C4'  980   8.217   7.329   6.513
   31C      H4'  981   8.265   7.360   6.420
   31C      O4'  982   8.326   7.293   6.602
   31C      C1'  983   8.347   7.152   6.599
   31C      H1'  984   8.453   7.134   6.581
   31C       N1  985   8.322   7.092   6.735
   31C       C6  986   8.287   7.173   6.840
   31C       H6  987   8.278   7.280   6.824
   31C       C5  988   8.263   7.124   6.963
   31C       H5  989   8.235   7.192   7.043
   31C       C4  990   8.275   6.983   6.980
   31C       N4  991   8.253   6.928   7.099
   31C      H41  992   8.263   6.828   7.107
   31C      H42  993   8.227   6.985   7.178
   31C       N3  994   8.309   6.903   6.880
   31C       C2  995   8.334   6.953   6.756
   31C       O2  996   8.365   6.878   6.662
   31C      C3'  997   8.138   7.200   6.499
   31C      H3'  998   8.046   7.152   6.534
   31C      C2'  999   8.250   7.096   6.494
   31C      H2' 1000   8.186   7.010   6.513
   31C      O2' 1001   8.310   7.085   6.366
   31C     HO2' 1002   8.361   7.004   6.367
   31C      O3' 1003   8.059   7.198   6.381
   32C        P 1004   7.928   7.106   6.378
   32C      OP1 1005   7.846   7.147   6.261
   32C      OP2 1006   7.867   7.105   6.514
   32C      O5' 1007   7.986   6.958   6.352
   32C      C5' 1008   8.036   6.916   6.225
   32C      H5' 1009   8.125   6.972   6.198
   32C     H5'' 1010   7.959   6.932   6.150
   32C      C4' 1011   8.069   6.768   6.231
   32C      H4' 1012   8.120   6.736   6.140
   32C      O4' 1013   8.166   6.746   6.337
   32C      C1' 1014   8.142   6.621   6.400
   32C      H1' 1015   8.235   6.565   6.395
   32C       N1 1016   8.116   6.635   6.548
   32C       C6 1017   8.082   6.756   6.601
   32C       H6 1018   8.075   6.843   6.537
   32C       C5 1019   8.057   6.770   6.732
   32C       H5 1020   8.031   6.869   6.771
   32C       C4 1021   8.067   6.654   6.815
   32C       N4 1022   8.044   6.661   6.946
   32C      H41 1023   8.053   6.576   7.000
   32C      H42 1024   8.020   6.750   6.989
   32C       N3 1025   8.099   6.535   6.765
   32C       C2 1026   8.124   6.522   6.632
   32C       O2 1027   8.154   6.412   6.585
   32C      C3' 1028   7.952   6.678   6.270
   32C      H3' 1029   7.853   6.688   6.314
   32C      C2' 1030   8.022   6.557   6.330
   32C      H2' 1031   7.934   6.519   6.382
   32C      O2' 1032   8.063   6.462   6.233
   32C     HO2' 1033   8.084   6.381   6.280
   32C      O3' 1034   7.869   6.641   6.159
   33U        P 1035   7.712   6.614   6.184
   33U      OP1 1036   7.637   6.703   6.092
   33U      OP2 1037   7.684   6.620   6.330
   33U      O5' 1038   7.686   6.461   6.139
   33U      C5' 1039   7.789   6.363   6.138
   33U      H5' 1040   7.884   6.411   6.163
   33U     H5'' 1041   7.794   6.323   6.037
   33U      C4' 1042   7.764   6.249   6.236
   33U      H4' 1043   7.797   6.157   6.187
   33U      O4' 1044   7.850   6.261   6.352
   33U      C1' 1045   7.793   6.187   6.459
   33U      H1' 1046   7.856   6.104   6.490
   33U       N1 1047   7.787   6.273   6.583
   33U       C6 1048   7.792   6.410   6.570
   33U       H6 1049   7.795   6.451   6.470
   33U       C5 1050   7.788   6.494   6.674
   33U       H5 1051   7.791   6.603   6.660
   33U       C4 1052   7.779   6.441   6.807
   33U       O4 1053   7.774   6.507   6.910
   33U       N3 1054   7.774   6.303   6.815
   33U       H3 1055   7.766   6.259   6.915
   33U       C2 1056   7.778   6.214   6.709
   33U       O2 1057   7.773   6.094   6.729
   33U      C3' 1058   7.627   6.239   6.300
   33U      H3' 1059   7.545   6.304   6.332
   33U      C2' 1060   7.656   6.137   6.411
   33U      H2' 1061   7.563   6.148   6.466
   33U      O2' 1062   7.668   6.004   6.364
   33U     HO2' 1063   7.667   5.947   6.441
   33U      O3' 1064   7.525   6.198   6.206
   34U        P 1065   7.380   6.269   6.211
   34U      OP1 1066   7.302   6.225   6.092
   34U      OP2 1067   7.398   6.415   6.235
   34U      O5' 1068   7.316   6.198   6.341
   34U      C5' 1069   7.287   6.058   6.334
   34U      H5' 1070   7.363   6.005   6.276
   34U     H5'' 1071   7.191   6.050   6.283
   34U      C4' 1072   7.276   5.995   6.471
   34U      H4' 1073   7.291   5.887   6.466
   34U      O4' 1074   7.383   6.042   6.556
   34U      C1' 1075   7.344   6.027   6.691
   34U      H1' 1076   7.403   5.950   6.741
   34U       N1 1077   7.379   6.150   6.766
   34U       C6 1078   7.406   6.267   6.698
   34U       H6 1079   7.398   6.268   6.590
   34U       C5 1080   7.438   6.382   6.761
   34U       H5 1081   7.461   6.473   6.706
   34U       C4 1082   7.443   6.384   6.906
   34U       O4 1083   7.471   6.481   6.976
   34U       N3 1084   7.414   6.263   6.968
   34U       H3 1085   7.417   6.261   7.077
   34U       C2 1086   7.381   6.144   6.905
   34U       O2 1087   7.357   6.043   6.968
   34U      C3' 1088   7.153   6.036   6.549
   34U      H3' 1089   7.077   6.114   6.550
   34U      C2' 1090   7.193   6.002   6.693
   34U      H2' 1091   7.121   6.070   6.737
   34U      O2' 1092   7.163   5.869   6.732
   34U     HO2' 1093   7.168   5.866   6.827
   34U      O3' 1094   7.037   5.966   6.505
   35G        P 1095   6.902   6.050   6.480
   35G      OP1 1096   6.789   5.954   6.467
   35G      OP2 1097   6.928   6.149   6.374
   35G      O5' 1098   6.886   6.129   6.618
   35G      C5' 1099   6.846   6.064   6.739
   35G      H5' 1100   6.916   5.984   6.759
   35G     H5'' 1101   6.745   6.023   6.731
   35G      C4' 1102   6.850   6.165   6.852
   35G      H4' 1103   6.850   6.111   6.947
   35G      O4' 1104   6.977   6.239   6.853
   35G      C1' 1105   6.945   6.376   6.858
   35G      H1' 1106   6.943   6.397   6.965
   35G       N9 1107   7.046   6.467   6.807
   35G       C8 1108   7.079   6.490   6.675
   35G       H8 1109   7.031   6.435   6.596
   35G       N7 1110   7.172   6.581   6.661
   35G       C5 1111   7.201   6.622   6.790
   35G       C6 1112   7.294   6.718   6.837
   35G       O6 1113   7.371   6.789   6.769
   35G       N1 1114   7.293   6.731   6.976
   35G       H1 1115   7.355   6.797   7.019
   35G       C2 1116   7.212   6.658   7.059
   35G       N2 1117   7.223   6.683   7.190
   35G      H21 1118   7.286   6.748   7.234
   35G      H22 1119   7.164   6.628   7.251
   35G       N3 1120   7.125   6.567   7.016
   35G       C4 1121   7.124   6.554   6.881
   35G      C3' 1122   6.740   6.270   6.844
   35G      H3' 1123   6.633   6.281   6.827
   35G      C2' 1124   6.814   6.386   6.779
   35G      H2' 1125   6.804   6.356   6.675
   35G      O2' 1126   6.753   6.511   6.799
   35G     HO2' 1127   6.798   6.574   6.741
   35G      O3' 1128   6.701   6.305   6.975
   36U        P 1129   6.556   6.268   7.027
   36U      OP1 1130   6.546   6.121   7.048
   36U      OP2 1131   6.461   6.339   6.937
   36U      O5' 1132   6.553   6.341   7.169
   36U      C5' 1133   6.616   6.283   7.282
   36U      H5' 1134   6.709   6.236   7.250
   36U     H5'' 1135   6.551   6.209   7.327
   36U      C4' 1136   6.647   6.391   7.384
   36U      H4' 1137   6.691   6.344   7.472
   36U      O4' 1138   6.752   6.476   7.332
   36U      C1' 1139   6.723   6.610   7.362
   36U      H1' 1140   6.758   6.641   7.461
   36U       N1 1141   6.804   6.697   7.270
   36U       C6 1142   6.798   6.673   7.134
   36U       H6 1143   6.732   6.595   7.098
   36U       C5 1144   6.867   6.745   7.045
   36U       H5 1145   6.861   6.725   6.938
   36U       C4 1146   6.952   6.851   7.092
   36U       O4 1147   7.020   6.923   7.018
   36U       N3 1148   6.954   6.871   7.229
   36U       H3 1149   7.017   6.952   7.266
   36U       C2 1150   6.884   6.798   7.322
   36U       O2 1151   6.893   6.824   7.442
   36U      C3' 1152   6.533   6.486   7.418
   36U      H3' 1153   6.425   6.483   7.431
   36U      C2' 1154   6.572   6.616   7.347
   36U      H2' 1155   6.518   6.602   7.254
   36U      O2' 1156   6.525   6.732   7.413
   36U     HO2' 1157   6.539   6.806   7.353
   36U      O3' 1158   6.535   6.509   7.556
   37A        P 1159   6.495   6.403   7.666
   37A      OP1 1160   6.607   6.308   7.679
   37A      OP2 1161   6.359   6.351   7.639
   37A      O5' 1162   6.488   6.498   7.795
   37A      C5' 1163   6.543   6.463   7.919
   37A      H5' 1164   6.643   6.422   7.904
   37A     H5'' 1165   6.480   6.388   7.966
   37A      C4' 1166   6.552   6.585   8.009
   37A      H4' 1167   6.581   6.553   8.109
   37A      O4' 1168   6.662   6.669   7.965
   37A      C1' 1169   6.626   6.806   7.973
   37A      H1' 1170   6.702   6.869   8.019
   37A       N9 1171   6.617   6.860   7.836
   37A       C8 1172   6.630   6.790   7.720
   37A       H8 1173   6.643   6.683   7.722
   37A       N7 1174   6.620   6.864   7.612
   37A       C5 1175   6.598   6.991   7.660
   37A       C6 1176   6.578   7.114   7.596
   37A       N6 1177   6.578   7.129   7.464
   37A      H61 1178   6.563   7.220   7.423
   37A      H62 1179   6.593   7.049   7.404
   37A       N1 1180   6.559   7.223   7.673
   37A       C2 1181   6.560   7.209   7.806
   37A       H2 1182   6.546   7.294   7.871
   37A       N3 1183   6.578   7.097   7.878
   37A       C4 1184   6.597   6.991   7.798
   37A      C3' 1185   6.432   6.678   8.009
   37A      H3' 1186   6.343   6.698   7.949
   37A      C2' 1187   6.496   6.809   8.051
   37A      H2' 1188   6.412   6.876   8.030
   37A      O2' 1189   6.524   6.810   8.189
   37A     HO2' 1190   6.546   6.900   8.213
   37A      O3' 1191   6.335   6.636   8.104
   38A        P 1192   6.179   6.643   8.068
   38A      OP1 1193   6.108   6.587   8.185
   38A      OP2 1194   6.160   6.588   7.931
   38A      O5' 1195   6.143   6.799   8.061
   38A      C5' 1196   6.161   6.885   8.174
   38A      H5' 1197   6.255   6.864   8.226
   38A     H5'' 1198   6.077   6.869   8.242
   38A      C4' 1199   6.162   7.028   8.127
   38A      H4' 1200   6.181   7.097   8.209
   38A      O4' 1201   6.272   7.050   8.034
   38A      C1' 1202   6.232   7.140   7.933
   38A      H1' 1203   6.303   7.223   7.923
   38A       N9 1204   6.240   7.075   7.802
   38A       C8 1205   6.244   6.942   7.773
   38A       H8 1206   6.238   6.869   7.853
   38A       N7 1207   6.249   6.915   7.643
   38A       C5 1208   6.249   7.039   7.584
   38A       C6 1209   6.253   7.080   7.449
   38A       N6 1210   6.259   6.997   7.345
   38A      H61 1211   6.262   7.034   7.251
   38A      H62 1212   6.261   6.897   7.361
   38A       N1 1213   6.250   7.212   7.423
   38A       C2 1214   6.244   7.298   7.526
   38A       H2 1215   6.242   7.404   7.509
   38A       N3 1216   6.239   7.271   7.657
   38A       C4 1217   6.243   7.138   7.679
   38A      C3' 1218   6.040   7.066   8.043
   38A      H3' 1219   5.959   7.020   7.987
   38A      C2' 1220   6.091   7.188   7.968
   38A      H2' 1221   6.011   7.196   7.896
   38A      O2' 1222   6.094   7.304   8.050
   38A     HO2' 1223   6.108   7.379   7.991
   38A      O3' 1224   5.931   7.098   8.126
   39C        P 1225   5.784   7.056   8.080
   39C      OP1 1226   5.696   7.090   8.194
   39C      OP2 1227   5.788   6.916   8.030
   39C      O5' 1228   5.754   7.152   7.956
   39C      C5' 1229   5.712   7.285   7.978
   39C      H5' 1230   5.773   7.331   8.055
   39C     H5'' 1231   5.608   7.283   8.011
   39C      C4' 1232   5.723   7.367   7.851
   39C      H4' 1233   5.718   7.473   7.875
   39C      O4' 1234   5.855   7.349   7.794
   39C      C1' 1235   5.847   7.349   7.652
   39C      H1' 1236   5.928   7.414   7.618
   39C       N1 1237   5.881   7.215   7.593
   39C       C6 1238   5.879   7.101   7.668
   39C       H6 1239   5.855   7.107   7.773
   39C       C5 1240   5.906   6.981   7.615
   39C       H5 1241   5.906   6.892   7.678
   39C       C4 1242   5.936   6.978   7.476
   39C       N4 1243   5.965   6.862   7.417
   39C      H41 1244   5.985   6.863   7.318
   39C      H42 1245   5.965   6.776   7.470
   39C       N3 1246   5.938   7.088   7.399
   39C       C2 1247   5.911   7.209   7.456
   39C       O2 1248   5.911   7.313   7.389
   39C      C3' 1249   5.630   7.326   7.738
   39C      H3' 1250   5.574   7.239   7.705
   39C      C2' 1251   5.703   7.389   7.619
   39C      H2' 1252   5.643   7.343   7.541
   39C      O2' 1253   5.694   7.529   7.611
   39C     HO2' 1254   5.726   7.555   7.525
   39C      O3' 1255   5.497   7.374   7.758
   40C        P 1256   5.368   7.291   7.707
   40C      OP1 1257   5.250   7.354   7.773
   40C      OP2 1258   5.391   7.145   7.726
   40C      O5' 1259   5.360   7.317   7.549
   40C      C5' 1260   5.363   7.450   7.497
   40C      H5' 1261   5.441   7.510   7.543
   40C     H5'' 1262   5.266   7.494   7.520
   40C      C4' 1263   5.382   7.448   7.347
   40C      H4' 1264   5.382   7.550   7.308
   40C      O4' 1265   5.513   7.396   7.310
   40C      C1' 1266   5.506   7.336   7.181
   40C      H1' 1267   5.578   7.385   7.116
   40C       N1 1268   5.554   7.193   7.185
   40C       C6 1269   5.569   7.132   7.306
   40C       H6 1270   5.547   7.187   7.396
   40C       C5 1271   5.611   7.005   7.317
   40C       H5 1272   5.622   6.960   7.415
   40C       C4 1273   5.640   6.936   7.196
   40C       N4 1274   5.683   6.809   7.200
   40C      H41 1275   5.702   6.763   7.113
   40C      H42 1276   5.694   6.763   7.289
   40C       N3 1277   5.626   6.993   7.075
   40C       C2 1278   5.583   7.122   7.066
   40C       O2 1279   5.570   7.176   6.956
   40C      C3' 1280   5.291   7.353   7.272
   40C      H3' 1281   5.240   7.258   7.287
   40C      C2' 1282   5.361   7.353   7.136
   40C      H2' 1283   5.302   7.275   7.087
   40C      O2' 1284   5.344   7.475   7.068
   40C     HO2' 1285   5.375   7.462   6.978
   40C      O3' 1286   5.157   7.399   7.268
   41G        P 1287   5.036   7.293   7.277
   41G      OP1 1288   4.911   7.372   7.281
   41G      OP2 1289   5.063   7.197   7.387
   41G      O5' 1290   5.046   7.216   7.137
   41G      C5' 1291   4.998   7.277   7.018
   41G      H5' 1292   5.043   7.375   7.005
   41G     H5'' 1293   4.890   7.287   7.027
   41G      C4' 1294   5.031   7.190   6.898
   41G      H4' 1295   5.012   7.248   6.807
   41G      O4' 1296   5.173   7.163   6.895
   41G      C1' 1297   5.198   7.042   6.827
   41G      H1' 1298   5.276   7.063   6.754
   41G       N9 1299   5.261   6.944   6.917
   41G       C8 1300   5.270   6.948   7.054
   41G       H8 1301   5.231   7.032   7.110
   41G       N7 1302   5.329   6.843   7.106
   41G       C5 1303   5.360   6.764   6.996
   41G       C6 1304   5.424   6.639   6.987
   41G       O6 1305   5.469   6.569   7.080
   41G       N1 1306   5.436   6.593   6.856
   41G       H1 1307   5.479   6.504   6.841
   41G       C2 1308   5.392   6.661   6.746
   41G       N2 1309   5.411   6.603   6.627
   41G      H21 1310   5.456   6.514   6.609
   41G      H22 1311   5.379   6.654   6.546
   41G       N3 1312   5.332   6.779   6.752
   41G       C4 1313   5.319   6.825   6.879
   41G      C3' 1314   4.972   7.050   6.894
   41G      H3' 1315   4.935   6.970   6.959
   41G      C2' 1316   5.060   6.991   6.785
   41G      H2' 1317   5.027   6.887   6.797
   41G      O2' 1318   5.026   7.036   6.655
   41G     HO2' 1319   5.071   6.979   6.593
   41G      O3' 1320   4.833   7.049   6.860
   42A        P 1321   4.724   6.970   6.949
   42A      OP1 1322   4.592   7.030   6.917
   42A      OP2 1323   4.768   6.959   7.090
   42A      O5' 1324   4.728   6.823   6.888
   42A      C5' 1325   4.679   6.714   6.963
   42A      H5' 1326   4.579   6.733   7.002
   42A     H5'' 1327   4.747   6.694   7.046
   42A      C4' 1328   4.675   6.593   6.873
   42A      H4' 1329   4.625   6.508   6.921
   42A      O4' 1330   4.592   6.623   6.758
   42A      C1' 1331   4.650   6.571   6.640
   42A      H1' 1332   4.587   6.502   6.584
   42A       N9 1333   4.667   6.683   6.548
   42A       C8 1334   4.670   6.816   6.580
   42A       H8 1335   4.665   6.846   6.684
   42A       N7 1336   4.684   6.895   6.477
   42A       C5 1337   4.690   6.810   6.370
   42A       C6 1338   4.705   6.834   6.233
   42A       N6 1339   4.717   6.957   6.184
   42A      H61 1340   4.727   6.970   6.084
   42A      H62 1341   4.714   7.036   6.246
   42A       N1 1342   4.709   6.727   6.150
   42A       C2 1343   4.698   6.604   6.203
   42A       H2 1344   4.700   6.516   6.140
   42A       N3 1345   4.683   6.569   6.332
   42A       C4 1346   4.680   6.678   6.411
   42A      C3' 1347   4.809   6.556   6.814
   42A      H3' 1348   4.907   6.603   6.807
   42A      C2' 1349   4.774   6.493   6.680
   42A      H2' 1350   4.872   6.502   6.632
   42A      O2' 1351   4.741   6.357   6.694
   42A     HO2' 1352   4.738   6.319   6.606
   42A      O3' 1353   4.880   6.469   6.901
   43A        P 1354   5.039   6.489   6.910
   43A      OP1 1355   5.097   6.407   7.020
   43A      OP2 1356   5.061   6.636   6.910
   43A      O5' 1357   5.083   6.425   6.770
   43A      C5' 1358   5.087   6.284   6.757
   43A      H5' 1359   4.994   6.243   6.797
   43A     H5'' 1360   5.171   6.245   6.815
   43A      C4' 1361   5.103   6.241   6.612
   43A      H4' 1362   5.075   6.136   6.604
   43A      O4' 1363   5.008   6.310   6.527
   43A      C1' 1364   5.065   6.334   6.400
   43A      H1' 1365   5.008   6.293   6.316
   43A       N9 1366   5.060   6.478   6.376
   43A       C8 1367   5.060   6.577   6.471
   43A       H8 1368   5.072   6.551   6.575
   43A       N7 1369   5.053   6.699   6.422
   43A       C5 1370   5.047   6.678   6.286
   43A       C6 1371   5.038   6.768   6.177
   43A       N6 1372   5.033   6.900   6.194
   43A      H61 1373   5.027   6.961   6.114
   43A      H62 1374   5.036   6.939   6.287
   43A       N1 1375   5.033   6.717   6.051
   43A       C2 1376   5.038   6.584   6.035
   43A       H2 1377   5.034   6.539   5.937
   43A       N3 1378   5.046   6.490   6.131
   43A       C4 1379   5.050   6.543   6.255
   43A      C3' 1380   5.237   6.273   6.550
   43A      H3' 1381   5.325   6.334   6.568
   43A      C2' 1382   5.204   6.272   6.402
   43A      H2' 1383   5.294   6.322   6.367
   43A      O2' 1384   5.200   6.141   6.349
   43A     HO2' 1385   5.199   6.150   6.253
   43A      O3' 1386   5.328   6.172   6.585
   44A        P 1387   5.483   6.206   6.605
   44A      OP1 1388   5.551   6.083   6.653
   44A      OP2 1389   5.500   6.333   6.680
   44A      O5' 1390   5.525   6.226   6.452
   44A      C5' 1391   5.542   6.112   6.368
   44A      H5' 1392   5.452   6.050   6.366
   44A     H5'' 1393   5.627   6.053   6.403
   44A      C4' 1394   5.571   6.161   6.227
   44A      H4' 1395   5.569   6.078   6.157
   44A      O4' 1396   5.464   6.249   6.184
   44A      C1' 1397   5.517   6.352   6.104
   44A      H1' 1398   5.472   6.360   6.005
   44A       N9 1399   5.482   6.479   6.166
   44A       C8 1400   5.485   6.513   6.298
   44A       H8 1401   5.523   6.444   6.372
   44A       N7 1402   5.446   6.636   6.320
   44A       C5 1403   5.415   6.684   6.194
   44A       C6 1404   5.367   6.808   6.149
   44A       N6 1405   5.342   6.910   6.231
   44A      H61 1406   5.308   6.997   6.194
   44A      H62 1407   5.357   6.899   6.331
   44A       N1 1408   5.345   6.824   6.018
   44A       C2 1409   5.370   6.721   5.935
   44A       H2 1410   5.353   6.731   5.829
   44A       N3 1411   5.416   6.600   5.965
   44A       C4 1412   5.436   6.588   6.098
   44A      C3' 1413   5.696   6.246   6.214
   44A      H3' 1414   5.764   6.302   6.279
   44A      C2' 1415   5.667   6.329   6.090
   44A      H2' 1416   5.745   6.404   6.103
   44A      O2' 1417   5.688   6.261   5.968
   44A     HO2' 1418   5.685   6.327   5.898
   44A      O3' 1419   5.808   6.162   6.200
   45G        P 1420   5.943   6.197   6.277
   45G      OP1 1421   6.045   6.106   6.223
   45G      OP2 1422   5.917   6.201   6.423
   45G      O5' 1423   5.975   6.345   6.225
   45G      C5' 1424   6.016   6.449   6.313
   45G      H5' 1425   6.124   6.460   6.311
   45G     H5'' 1426   5.984   6.426   6.415
   45G      C4' 1427   5.951   6.578   6.269
   45G      H4' 1428   5.954   6.587   6.160
   45G      O4' 1429   5.809   6.577   6.301
   45G      C1' 1430   5.772   6.694   6.372
   45G      H1' 1431   5.669   6.717   6.345
   45G       N9 1432   5.766   6.666   6.515
   45G       C8 1433   5.794   6.548   6.578
   45G       H8 1434   5.824   6.461   6.522
   45G       N7 1435   5.781   6.555   6.708
   45G       C5 1436   5.743   6.686   6.732
   45G       C6 1437   5.715   6.752   6.854
   45G       O6 1438   5.718   6.705   6.969
   45G       N1 1439   5.679   6.885   6.837
   45G       H1 1440   5.657   6.940   6.918
   45G       C2 1441   5.672   6.947   6.715
   45G       N2 1442   5.636   7.075   6.715
   45G      H21 1443   5.612   7.132   6.796
   45G      H22 1444   5.630   7.121   6.625
   45G       N3 1445   5.698   6.886   6.600
   45G       C4 1446   5.734   6.756   6.615
   45G      C3' 1447   6.005   6.701   6.339
   45G      H3' 1448   6.069   6.726   6.423
   45G      C2' 1449   5.882   6.794   6.340
   45G      H2' 1450   5.923   6.867   6.410
   45G      O2' 1451   5.853   6.858   6.217
   45G     HO2' 1452   5.789   6.927   6.236
   45G      O3' 1453   6.118   6.750   6.270
   46G        P 1454   6.245   6.803   6.352
   46G      OP1 1455   6.351   6.845   6.258
   46G      OP2 1456   6.276   6.701   6.455
   46G      O5' 1457   6.185   6.934   6.423
   46G      C5' 1458   6.150   7.047   6.343
   46G      H5' 1459   6.085   7.019   6.260
   46G     H5'' 1460   6.242   7.089   6.304
   46G      C4' 1461   6.080   7.150   6.429
   46G      H4' 1462   6.030   7.224   6.367
   46G      O4' 1463   5.973   7.086   6.504
   46G      C1' 1464   5.955   7.154   6.627
   46G      H1' 1465   5.851   7.185   6.635
   46G       N9 1466   5.972   7.060   6.737
   46G       C8 1467   6.006   6.927   6.728
   46G       H8 1468   6.025   6.880   6.633
   46G       N7 1469   6.014   6.868   6.846
   46G       C5 1470   5.982   6.968   6.936
   46G       C6 1471   5.973   6.964   7.077
   46G       O6 1472   5.992   6.866   7.151
   46G       N1 1473   5.938   7.086   7.133
   46G       H1 1474   5.930   7.095   7.232
   46G       C2 1475   5.913   7.199   7.058
   46G       N2 1476   5.879   7.310   7.126
   46G      H21 1477   5.869   7.319   7.226
   46G      H22 1478   5.860   7.392   7.071
   46G       N3 1479   5.920   7.204   6.925
   46G       C4 1480   5.955   7.086   6.871
   46G      C3' 1481   6.166   7.209   6.539
   46G      H3' 1482   6.255   7.187   6.599
   46G      C2' 1483   6.058   7.266   6.629
   46G      H2' 1484   6.120   7.292   6.714
   46G      O2' 1485   6.001   7.384   6.574
   46G     HO2' 1486   5.948   7.424   6.643
   46G      O3' 1487   6.251   7.312   6.489
   47G        P 1488   6.406   7.314   6.530
   47G      OP1 1489   6.461   7.448   6.498
   47G      OP2 1490   6.470   7.195   6.467
   47G      O5' 1491   6.402   7.300   6.691
   47G      C5' 1492   6.363   7.411   6.772
   47G      H5' 1493   6.276   7.461   6.729
   47G     H5'' 1494   6.447   7.480   6.777
   47G      C4' 1495   6.329   7.363   6.913
   47G      H4' 1496   6.262   7.277   6.907
   47G      O4' 1497   6.449   7.312   6.975
   47G      C1' 1498   6.456   7.349   7.111
   47G      H1' 1499   6.494   7.262   7.165
   47G       N9 1500   6.560   7.450   7.130
   47G       C8 1501   6.624   7.521   7.032
   47G       H8 1502   6.604   7.505   6.927
   47G       N7 1503   6.711   7.606   7.082
   47G       C5 1504   6.701   7.591   7.219
   47G       C6 1505   6.770   7.657   7.322
   47G       O6 1506   6.856   7.747   7.311
   47G       N1 1507   6.733   7.614   7.449
   47G       H1 1508   6.778   7.654   7.529
   47G       C2 1509   6.638   7.518   7.472
   47G       N2 1510   6.615   7.489   7.601
   47G      H21 1511   6.660   7.530   7.681
   47G      H22 1512   6.546   7.418   7.620
   47G       N3 1513   6.572   7.453   7.375
   47G       C4 1514   6.609   7.495   7.251
   47G      C3' 1515   6.283   7.470   7.010
   47G      H3' 1516   6.284   7.578   7.019
   47G      C2' 1517   6.320   7.407   7.144
   47G      H2' 1518   6.301   7.493   7.208
   47G      O2' 1519   6.235   7.302   7.182
   47G     HO2' 1520   6.254   7.281   7.273
   47G      O3' 1521   6.143   7.491   6.998
   48G        P 1522   6.085   7.641   7.006
   48G      OP1 1523   5.939   7.635   6.985
   48G      OP2 1524   6.170   7.730   6.922
   48G      O5' 1525   6.107   7.676   7.160
   48G      C5' 1526   6.024   7.609   7.253
   48G      H5' 1527   6.018   7.502   7.234
   48G     H5'' 1528   5.925   7.654   7.246
   48G      C4' 1529   6.079   7.632   7.391
   48G      H4' 1530   6.038   7.559   7.462
   48G      O4' 1531   6.221   7.607   7.392
   48G      C1' 1532   6.280   7.684   7.495
   48G      H1' 1533   6.334   7.619   7.563
   48G       N9 1534   6.384   7.767   7.437
   48G       C8 1535   6.412   7.788   7.304
   48G       H8 1536   6.354   7.741   7.226
   48G       N7 1537   6.514   7.869   7.287
   48G       C5 1538   6.553   7.902   7.416
   48G       C6 1539   6.657   7.985   7.461
   48G       O6 1540   6.738   8.047   7.392
   48G       N1 1541   6.664   7.991   7.600
   48G       H1 1542   6.736   8.047   7.641
   48G       C2 1543   6.579   7.924   7.685
   48G       N2 1544   6.598   7.939   7.818
   48G      H21 1545   6.670   7.994   7.863
   48G      H22 1546   6.536   7.888   7.878
   48G       N3 1547   6.481   7.845   7.643
   48G       C4 1548   6.474   7.840   7.508
   48G      C3' 1549   6.073   7.775   7.439
   48G      H3' 1550   6.067   7.877   7.402
   48G      C2' 1551   6.170   7.769   7.555
   48G      H2' 1552   6.179   7.875   7.576
   48G      O2' 1553   6.115   7.704   7.667
   48G     HO2' 1554   6.174   7.719   7.741
   48G      O3' 1555   5.943   7.805   7.485
   49G        P 1556   5.886   7.953   7.469
   49G      OP1 1557   5.752   7.948   7.533
   49G      OP2 1558   5.902   7.997   7.328
   49G      O5' 1559   5.980   8.041   7.563
   49G      C5' 1560   5.946   8.053   7.700
   49G      H5' 1561   5.913   7.956   7.736
   49G     H5'' 1562   5.864   8.124   7.708
   49G      C4' 1563   6.063   8.101   7.785
   49G      H4' 1564   6.055   8.052   7.882
   49G      O4' 1565   6.190   8.055   7.732
   49G      C1' 1566   6.292   8.143   7.777
   49G      H1' 1567   6.367   8.090   7.835
   49G       N9 1568   6.366   8.193   7.661
   49G       C8 1569   6.336   8.173   7.528
   49G       H8 1570   6.248   8.117   7.499
   49G       N7 1571   6.423   8.228   7.447
   49G       C5 1572   6.516   8.288   7.531
   49G       C6 1573   6.632   8.361   7.500
   49G       O6 1574   6.677   8.389   7.387
   49G       N1 1575   6.700   8.404   7.614
   49G       H1 1576   6.782   8.459   7.603
   49G       C2 1577   6.658   8.378   7.742
   49G       N2 1578   6.734   8.426   7.841
   49G      H21 1579   6.819   8.479   7.832
   49G      H22 1580   6.704   8.405   7.935
   49G       N3 1581   6.549   8.308   7.773
   49G       C4 1582   6.482   8.267   7.662
   49G      C3' 1583   6.084   8.251   7.792
   49G      H3' 1584   6.072   8.344   7.737
   49G      C2' 1585   6.221   8.250   7.860
   49G      H2' 1586   6.243   8.357   7.855
   49G      O2' 1587   6.215   8.210   7.996
   49G     HO2' 1588   6.301   8.229   8.035
   49G      O3' 1589   5.985   8.310   7.873
   50A        P 1590   5.955   8.468   7.868
   50A      OP1 1591   5.849   8.489   7.970
   50A      OP2 1592   5.932   8.508   7.726
   50A      O5' 1593   6.090   8.538   7.920
   50A      C5' 1594   6.127   8.538   8.058
   50A      H5' 1595   6.137   8.437   8.097
   50A     H5'' 1596   6.048   8.590   8.112
   50A      C4' 1597   6.258   8.612   8.077
   50A      H4' 1598   6.294   8.600   8.179
   50A      O4' 1599   6.363   8.555   7.995
   50A      C1' 1600   6.453   8.655   7.951
   50A      H1' 1601   6.557   8.640   7.981
   50A       N9 1602   6.460   8.655   7.805
   50A       C8 1603   6.371   8.599   7.719
   50A       H8 1604   6.279   8.555   7.756
   50A       N7 1605   6.405   8.611   7.592
   50A       C5 1606   6.525   8.680   7.597
   50A       C6 1607   6.612   8.724   7.496
   50A       N6 1608   6.590   8.705   7.365
   50A      H61 1609   6.656   8.739   7.297
   50A      H62 1610   6.507   8.656   7.335
   50A       N1 1611   6.724   8.791   7.534
   50A       C2 1612   6.747   8.811   7.665
   50A       H2 1613   6.835   8.863   7.699
   50A       N3 1614   6.671   8.773   7.768
   50A       C4 1615   6.561   8.707   7.727
   50A      C3' 1616   6.257   8.756   8.029
   50A      H3' 1617   6.202   8.818   7.959
   50A      C2' 1618   6.407   8.785   8.015
   50A      H2' 1619   6.399   8.881   7.965
   50A      O2' 1620   6.475   8.800   8.138
   50A     HO2' 1621   6.562   8.834   8.118
   50A      O3' 1622   6.195   8.837   8.123
   51A        P 1623   6.121   8.971   8.076
   51A      OP1 1624   6.044   9.018   8.193
   51A      OP2 1625   6.051   8.946   7.947
   51A      O5' 1626   6.242   9.073   8.049
   51A      C5' 1627   6.331   9.114   8.152
   51A      H5' 1628   6.360   9.030   8.217
   51A     H5'' 1629   6.280   9.189   8.212
   51A      C4' 1630   6.456   9.175   8.091
   51A      H4' 1631   6.532   9.191   8.169
   51A      O4' 1632   6.518   9.081   8.000
   51A      C1' 1633   6.585   9.148   7.895
   51A      H1' 1634   6.691   9.123   7.890
   51A       N9 1635   6.534   9.101   7.765
   51A       C8 1636   6.416   9.038   7.740
   51A       H8 1637   6.345   9.023   7.820
   51A       N7 1638   6.397   9.007   7.613
   51A       C5 1639   6.511   9.053   7.551
   51A       C6 1640   6.552   9.051   7.416
   51A       N6 1641   6.478   8.999   7.318
   51A      H61 1642   6.512   9.000   7.223
   51A      H62 1643   6.388   8.958   7.339
   51A       N1 1644   6.672   9.106   7.386
   51A       C2 1645   6.746   9.159   7.486
   51A       H2 1646   6.842   9.204   7.466
   51A       N3 1647   6.716   9.166   7.616
   51A       C4 1648   6.597   9.111   7.643
   51A      C3' 1649   6.434   9.294   8.001
   51A      H3' 1650   6.356   9.340   7.941
   51A      C2' 1651   6.566   9.296   7.924
   51A      H2' 1652   6.540   9.371   7.850
   51A      O2' 1653   6.674   9.342   8.003
   51A     HO2' 1654   6.748   9.357   7.943
   51A      O3' 1655   6.415   9.412   8.079
   52U3       P 1656   6.334   9.539   8.021
   52U3     OP1 1657   6.341   9.642   8.126
   52U3     OP2 1658   6.202   9.494   7.970
   52U3     O5' 1659   6.421   9.590   7.895
   52U3     C5' 1660   6.538   9.670   7.913
   52U3     H5' 1661   6.611   9.623   7.979
   52U3    H5'' 1662   6.505   9.765   7.957
   52U3     C4' 1663   6.602   9.698   7.778
   52U3     H4' 1664   6.702   9.741   7.790
   52U3     O4' 1665   6.626   9.571   7.713
   52U3     C1' 1666   6.616   9.580   7.573
   52U3     H1' 1667   6.707   9.546   7.524
   52U3      N1 1668   6.514   9.482   7.526
   52U3      C6 1669   6.415   9.441   7.614
   52U3      H6 1670   6.414   9.483   7.714
   52U3      C5 1671   6.319   9.354   7.580
   52U3      H5 1672   6.241   9.322   7.649
   52U3      C4 1673   6.318   9.303   7.445
   52U3      O4 1674   6.235   9.226   7.400
   52U3      N3 1675   6.418   9.348   7.362
   52U3      H3 1676   6.417   9.311   7.259
   52U3      C2 1677   6.517   9.435   7.396
   52U3      O2 1678   6.599   9.467   7.313
   52U3     C3' 1679   6.515   9.770   7.677
   52U3     H3' 1680   6.410   9.793   7.661
   52U3     C2' 1681   6.578   9.726   7.544
   52U3     H2' 1682   6.495   9.757   7.482
   52U3     O2' 1683   6.694   9.800   7.508
   52U3    HO2' 1684   6.712   9.780   7.416
   52U3     O3' 1685   6.514   9.912   7.701
   52U3    HO3' 1686   6.461   9.964   7.641
   53sah      N 1687   6.188   6.373   7.413
   53sah     CA 1688   6.085   6.456   7.348
   53sah     CB 1689   6.119   6.472   7.200
   53sah     CG 1690   6.255   6.539   7.186
   53sah     SD 1691   6.295   6.625   7.045
   53sah      C 1692   5.951   6.389   7.362
   53sah      O 1693   5.943   6.269   7.368
   53sah    OXT 1694   5.839   6.464   7.368
   53sah    C5' 1695   6.434   6.722   6.981
   53sah    C4' 1696   6.403   6.805   6.856
   53sah    O4' 1697   6.413   6.945   6.880
   53sah    C3' 1698   6.502   6.782   6.745
   53sah    O3' 1699   6.434   6.818   6.627
   53sah    C2' 1700   6.612   6.884   6.769
   53sah    O2' 1701   6.654   6.938   6.646
   53sah    C1' 1702   6.544   6.991   6.851
   53sah     N9 1703   6.609   7.022   6.979
   53sah     C8 1704   6.582   6.965   7.101
   53sah     N7 1705   6.660   7.023   7.194
   53sah     C5 1706   6.736   7.117   7.134
   53sah     C6 1707   6.831   7.206   7.181
   53sah     N6 1708   6.865   7.209   7.310
   53sah     N1 1709   6.893   7.292   7.094
   53sah     C2 1710   6.861   7.291   6.960
   53sah     N3 1711   6.766   7.203   6.914
   53sah     C4 1712   6.705   7.118   6.999
   53sah     H1 1713   6.281   6.406   7.395
   53sah     H2 1714   6.180   6.277   7.383
   53sah     H3 1715   6.080   6.554   7.394
   53sah     H4 1716   6.044   6.533   7.150
   53sah     H5 1717   6.120   6.375   7.151
   53sah     H6 1718   6.328   6.460   7.200
   53sah     H7 1719   6.262   6.607   7.271
   53sah     H8 1720   5.858   6.556   7.375
   53sah     H9 1721   6.518   6.656   6.961
   53sah    H10 1722   6.462   6.789   7.061
   53sah    H11 1723   6.302   6.784   6.823
   53sah    H12 1724   6.543   6.682   6.737
   53sah    H13 1725   6.377   6.748   6.599
   53sah    H14 1726   6.699   6.840   6.816
   53sah    H15 1727   6.578   6.949   6.590
   53sah    H16 1728   6.547   7.082   6.792
   53sah    H17 1729   6.510   6.889   7.120
   53sah    H18 1730   6.808   7.161   7.376
   53sah    H19 1731   6.921   7.284   7.341
   53sah    H20 1732   6.905   7.356   6.886
    1WAT      O 1733   0.877   1.161  10.295
    1WAT     H1 1734   0.793   1.141  10.303
    1WAT     H2 1735   0.910   1.144  10.374
    1WAT    EPW 1736   0.869   1.155  10.308
    2WAT      O 1737   0.552   1.834   9.383
    2WAT     H1 1738   0.596   1.764   9.412
    2WAT     H2 1739   0.573   1.896   9.441
    2WAT    EPW 1740   0.562   1.833   9.396
    3WAT      O 1741   0.262   1.130  10.526
    3WAT     H1 1742   0.334   1.179  10.523
    3WAT     H2 1743   0.235   1.127  10.443
    3WAT    EPW 1744   0.269   1.137  10.513
    4WAT      O 1745   0.585   0.647  10.200
    4WAT     H1 1746   0.670   0.628  10.210
    4WAT     H2 1747   0.548   0.569  10.186
    4WAT    EPW 1748   0.592   0.633  10.199
    5WAT      O 1749   1.847   1.805   9.632
    5WAT     H1 1750   1.916   1.759   9.608
    5WAT     H2 1751   1.793   1.746   9.666
    5WAT    EPW 1752   1.849   1.790   9.634
    6WAT      O 1753   1.571   1.083  10.550
    6WAT     H1 1754   1.570   1.005  10.590
    6WAT     H2 1755   1.487   1.106  10.550
    6WAT    EPW 1756   1.558   1.075  10.556
    7WAT      O 1757   0.520   0.924   9.414
    7WAT     H1 1758   0.459   0.884   9.461
    7WAT     H2 1759   0.481   0.936   9.337
    7WAT    EPW 1760   0.505   0.920   9.409
    8WAT      O 1761   0.202   1.235  10.954
    8WAT     H1 1762   0.159   1.183  10.898
    8WAT     H2 1763   0.166   1.314  10.940
    8WAT    EPW 1764   0.190   1.239  10.944
    9WAT      O 1765   1.696   1.090  10.294
    9WAT     H1 1766   1.668   1.130  10.366
    9WAT     H2 1767   1.782   1.084  10.307
    9WAT    EPW 1768   1.705   1.095  10.307
   10WAT      O 1769   0.665   0.770   9.685
   10WAT     H1 1770   0.692   0.853   9.692
   10WAT     H2 1771   0.579   0.778   9.675
   10WAT    EPW 1772   0.656   0.784   9.684
   11WAT      O 1773   1.462   0.483  11.148
   11WAT     H1 1774   1.410   0.528  11.200
   11WAT     H2 1775   1.426   0.403  11.147
   11WAT    EPW 1776   1.449   0.478  11.156
   12WAT      O 1777   1.809   1.653  10.347
   12WAT     H1 1778   1.838   1.679  10.269
   12WAT     H2 1779   1.879   1.663  10.399
   12WAT    EPW 1780   1.824   1.659  10.343
   13WAT      O 1781   1.312   0.839  11.156
   13WAT     H1 1782   1.319   0.850  11.242
   13WAT     H2 1783   1.248   0.895  11.134
   13WAT    EPW 1784   1.303   0.849  11.165
   14WAT      O 1785   1.538   0.871  10.992
   14WAT     H1 1786   1.570   0.950  11.012
   14WAT     H2 1787   1.501   0.844  11.066
   14WAT    EPW 1788   1.538   0.879  11.006
   15WAT      O 1789   1.470   1.514   9.545
   15WAT     H1 1790   1.503   1.433   9.549
   15WAT     H2 1791   1.394   1.507   9.588
   15WAT    EPW 1792   1.464   1.501   9.552
   16WAT      O 1793   1.518   0.697  10.111
   16WAT     H1 1794   1.444   0.665  10.143
   16WAT     H2 1795   1.518   0.780  10.139
   16WAT    EPW 1796   1.507   0.705  10.120
   17WAT      O 1797   1.808   0.926  11.266
   17WAT     H1 1798   1.803   0.891  11.186
   17WAT     H2 1799   1.882   0.972  11.263
   17WAT    EPW 1800   1.818   0.927  11.253
   18WAT      O 1801   1.762   1.293  10.886
   18WAT     H1 1802   1.825   1.238  10.861
   18WAT     H2 1803   1.756   1.350  10.820
   18WAT    EPW 1804   1.770   1.293  10.873
   19WAT      O 1805   1.207   1.301   9.485
   19WAT     H1 1806   1.276   1.250   9.469
   19WAT     H2 1807   1.166   1.306   9.409
   19WAT    EPW 1808   1.211   1.294   9.472
   20WAT      O 1809   0.675   1.416  10.616
   20WAT     H1 1810   0.646   1.475  10.673
   20WAT     H2 1811   0.681   1.460  10.541
   20WAT    EPW 1812   0.672   1.432  10.613
   21WAT      O 1813   0.473   1.311  10.956
   21WAT     H1 1814   0.393   1.282  10.972
   21WAT     H2 1815   0.464   1.398  10.956
   21WAT    EPW 1816   0.460   1.320  10.958
   22WAT      O 1817   1.409   0.330  10.857
   22WAT     H1 1818   1.484   0.375  10.851
   22WAT     H2 1819   1.353   0.377  10.810
   22WAT    EPW 1820   1.412   0.344  10.849
   23WAT      O 1821   0.927   1.059  10.565
   23WAT     H1 1822   0.975   1.096  10.628
   23WAT     H2 1823   0.845   1.072  10.591
   23WAT    EPW 1824   0.922   1.066  10.578
   24WAT      O 1825   0.598   0.619  10.839
   24WAT     H1 1826   0.614   0.544  10.882
   24WAT     H2 1827   0.594   0.594  10.756
   24WAT    EPW 1828   0.600   0.604  10.833
   25WAT      O 1829   0.853   1.798  10.088
   25WAT     H1 1830   0.908   1.866  10.093
   25WAT     H2 1831   0.818   1.806  10.008
   25WAT    EPW 1832   0.856   1.809  10.077
   26WAT      O 1833   0.672   1.621  10.427
   26WAT     H1 1834   0.609   1.679  10.408
   26WAT     H2 1835   0.697   1.592  10.348
   26WAT    EPW 1836   0.666   1.625  10.412
   27WAT      O 1837   1.103   1.284  11.126
   27WAT     H1 1838   1.178   1.313  11.093
   27WAT     H2 1839   1.048   1.289  11.058
   27WAT    EPW 1840   1.106   1.289  11.111
   28WAT      O 1841   1.494   1.539  10.976
   28WAT     H1 1842   1.528   1.566  11.051
   28WAT     H2 1843   1.523   1.597  10.918
   28WAT    EPW 1844   1.503   1.552  10.979
   29WAT      O 1845   1.680   0.754   9.510
   29WAT     H1 1846   1.718   0.821   9.470
   29WAT     H2 1847   1.596   0.776   9.513
   29WAT    EPW 1848   1.673   0.767   9.504
   30WAT      O 1849   0.831   1.098   9.418
   30WAT     H1 1850   0.751   1.081   9.390
   30WAT     H2 1851   0.828   1.183   9.437
   30WAT    EPW 1852   0.819   1.108   9.417
   31WAT      O 1853   0.424   0.705  10.433
   31WAT     H1 1854   0.468   0.695  10.359
   31WAT     H2 1855   0.479   0.674  10.494
   31WAT    EPW 1856   0.439   0.699  10.431
   32WAT      O 1857   1.226   0.615  10.992
   32WAT     H1 1858   1.161   0.662  11.027
   32WAT     H2 1859   1.282   0.606  11.058
   32WAT    EPW 1860   1.225   0.621  11.007
   33WAT      O 1861   1.195   0.769  10.622
   33WAT     H1 1862   1.225   0.811  10.692
   33WAT     H2 1863   1.198   0.685  10.645
   33WAT    EPW 1864   1.200   0.763  10.636
   34WAT      O 1865   0.937   1.786  11.015
   34WAT     H1 1866   0.985   1.726  10.973
   34WAT     H2 1867   0.902   1.741  11.081
   34WAT    EPW 1868   0.939   1.770  11.018
   35WAT      O 1869   1.449   0.714   9.847
   35WAT     H1 1870   1.470   0.693   9.930
   35WAT     H2 1871   1.525   0.740   9.813
   35WAT    EPW 1872   1.464   0.715   9.854
   36WAT      O 1873   0.779   0.203  10.438
   36WAT     H1 1874   0.696   0.189  10.462
   36WAT     H2 1875   0.775   0.207  10.351
   36WAT    EPW 1876   0.766   0.202  10.428
   37WAT      O 1877   1.552   0.322   9.995
   37WAT     H1 1878   1.480   0.275  10.012
   37WAT     H2 1879   1.535   0.356   9.916
   37WAT    EPW 1880   1.539   0.320   9.986
   38WAT      O 1881   1.596   1.116   9.833
   38WAT     H1 1882   1.643   1.043   9.828
   38WAT     H2 1883   1.514   1.088   9.825
   38WAT    EPW 1884   1.591   1.101   9.831
   39WAT      O 1885   0.943   1.307  10.917
   39WAT     H1 1886   0.863   1.301  10.952
   39WAT     H2 1887   0.950   1.392  10.897
   39WAT    EPW 1888   0.932   1.319  10.919
   40WAT      O 1889   0.526   1.928  10.448
   40WAT     H1 1890   0.527   1.934  10.535
   40WAT     H2 1891   0.483   1.853  10.433
   40WAT    EPW 1892   0.520   1.918  10.459
   41WAT      O 1893   0.342   0.518   9.764
   41WAT     H1 1894   0.354   0.485   9.684
   41WAT     H2 1895   0.261   0.493   9.784
   41WAT    EPW 1896   0.332   0.509   9.755
   42WAT      O 1897   1.217   1.233  10.068
   42WAT     H1 1898   1.225   1.267  10.148
   42WAT     H2 1899   1.234   1.148  10.080
   42WAT    EPW 1900   1.221   1.225  10.082
   43WAT      O 1901   0.970   1.160  10.025
   43WAT     H1 1902   0.940   1.129  10.100
   43WAT     H2 1903   1.039   1.208  10.048
   43WAT    EPW 1904   0.976   1.163  10.039
   44WAT      O 1905   0.992   1.572  10.827
   44WAT     H1 1906   1.061   1.561  10.880
   44WAT     H2 1907   1.005   1.651  10.793
   44WAT    EPW 1908   1.004   1.582  10.830
   45WAT      O 1909   1.809   0.833  11.009
   45WAT     H1 1910   1.724   0.821  11.021
   45WAT     H2 1911   1.825   0.794  10.932
   45WAT    EPW 1912   1.799   0.825  10.999
   46WAT      O 1913   1.261   0.900  10.866
   46WAT     H1 1914   1.235   0.828  10.908
   46WAT     H2 1915   1.343   0.911  10.893
   46WAT    EPW 1916   1.269   0.891  10.876
   47WAT      O 1917   1.054   1.019  11.185
   47WAT     H1 1918   1.086   1.087  11.142
   47WAT     H2 1919   0.984   1.051  11.225
   47WAT    EPW 1920   1.048   1.033  11.184
   48WAT      O 1921   1.363   1.856  10.278
   48WAT     H1 1922   1.317   1.920  10.316
   48WAT     H2 1923   1.433   1.848  10.328
   48WAT    EPW 1924   1.366   1.864  10.291
   49WAT      O 1925   1.033   1.365  10.571
   49WAT     H1 1926   0.963   1.405  10.605
   49WAT     H2 1927   1.100   1.408  10.605
   49WAT    EPW 1928   1.032   1.377  10.581
   50WAT      O 1929   1.570   1.624  11.229
   50WAT     H1 1930   1.648   1.585  11.237
   50WAT     H2 1931   1.523   1.591  11.294
   50WAT    EPW 1932   1.575   1.614  11.240
   51WAT      O 1933   0.339   0.719  10.805
   51WAT     H1 1934   0.377   0.781  10.757
   51WAT     H2 1935   0.407   0.671  10.834
   51WAT    EPW 1936   0.355   0.721  10.802
   52WAT      O 1937   1.673   0.828   9.777
   52WAT     H1 1938   1.683   0.822   9.691
   52WAT     H2 1939   1.747   0.794   9.809
   52WAT    EPW 1940   1.685   0.822   9.769
   53WAT      O 1941   0.372   0.305  10.974
   53WAT     H1 1942   0.364   0.220  10.995
   53WAT     H2 1943   0.341   0.309  10.893
   53WAT    EPW 1944   0.367   0.293  10.965
  14.96612  14.99651  14.98870
